 Gaussian 16, Revision C.01,

 -------------------------------------------------------------
 #P BP86/TZVP EmpiricalDispersion=GD3 SCRF=(Solvent=Water) Opt
 -------------------------------------------------------------

 -------------------------------------
 Particle #AQHHHDLHHXJYJD-UHFFFAOYSA-N
 -------------------------------------
 Symbolic Z-matrix:
 Charge =  0 Multiplicity = 1

 SCF Done:  E(RB-P86) =  -827.818189508     A.U. after   14 cycles
 SCF Done:  E(RB-P86) =  -827.846936918     A.U. after   11 cycles
 SCF Done:  E(RB-P86) =  -827.850274710     A.U. after   11 cycles
 SCF Done:  E(RB-P86) =  -827.850687765     A.U. after   11 cycles
 SCF Done:  E(RB-P86) =  -827.850974405     A.U. after   11 cycles
 SCF Done:  E(RB-P86) =  -827.851068921     A.U. after   10 cycles
 SCF Done:  E(RB-P86) =  -827.851086319     A.U. after   11 cycles
 SCF Done:  E(RB-P86) =  -827.851098637     A.U. after   10 cycles
 SCF Done:  E(RB-P86) =  -827.851099576     A.U. after    7 cycles
 SCF Done:  E(RB-P86) =  -827.851099816     A.U. after    8 cycles
 SCF Done:  E(RB-P86) =  -827.851099848     A.U. after    7 cycles
 SCF Done:  E(RB-P86) =  -827.851099951     A.U. after    7 cycles
 SCF Done:  E(RB-P86) =  -827.851099924     A.U. after    8 cycles
 SCF Done:  E(RB-P86) =  -827.851099997     A.U. after    8 cycles
 SCF Done:  E(RB-P86) =  -827.851099925     A.U. after    7 cycles
 SCF Done:  E(RB-P86) =  -827.851099971     A.U. after    8 cycles
 SCF Done:  E(RB-P86) =  -827.851099974     A.U. after    7 cycles
 Optimization completed.
    -- Stationary point found.
 Normal termination of Gaussian 16 at Mon Feb 22 21:12:19 2021.
 Gaussian 16:  ES64L-G16RevC.01  3-Jul-2019

 ---------------------------------------------------------
 # BP86/TZVP SCRF=COSMORS geom=CHECKPOINT guess=CHECKPOINT
 ---------------------------------------------------------

 -------------------------------------------
 COSMO-file for #AQHHHDLHHXJYJD-UHFFFAOYSA-N
 -------------------------------------------
 Structure from the checkpoint file:  "AQHHHDLHHXJYJD-UHFFFAOYSA-N.chk"
 Charge =  0 Multiplicity = 1

                         Standard orientation:
 ---------------------------------------------------------------------
 Center     Atomic      Atomic             Coordinates (Angstroms)
 Number     Number       Type             X           Y           Z
 ---------------------------------------------------------------------
      1          6           0       -5.792586    0.648408   -0.952698
      2          6           0       -4.387679    0.964086   -0.430535
      3          6           0       -4.447309    1.976402    0.719829
      4          7           0       -3.751910   -0.298066    0.016865
      5          6           0       -2.291225   -0.216512    0.154957
      6          6           0       -1.737414   -1.501891    0.777984
      7          8           0       -2.080839   -2.665078   -0.014343
      8          6           0       -0.228182   -1.464190    0.944968
      9          8           0        0.400670   -1.233153   -0.343011
     10          6           0        1.771193   -1.029186   -0.256569
     11          6           0        2.638716   -2.104068   -0.321899
     12          6           0        4.039134   -1.891811   -0.269153
     13          6           0        4.552512   -0.613858   -0.148733
     14          6           0        3.684337    0.512567   -0.080610
     15          6           0        4.175748    1.844091    0.037426
     16          6           0        3.308116    2.918930    0.097319
     17          6           0        1.905636    2.712349    0.035081
     18          6           0        1.391109    1.434278   -0.083013
     19          6           0        2.259273    0.309266   -0.139156
     20          1           0       -6.401556    0.189351   -0.157296
     21          1           0       -6.297283    1.566250   -1.287833
     22          1           0       -5.756347   -0.048087   -1.805723
     23          1           0       -3.801467    1.417412   -1.261595
     24          1           0       -3.447092    2.230599    1.100582
     25          1           0       -4.919549    2.911324    0.382013
     26          1           0       -5.039013    1.566474    1.553781
     27          1           0       -3.950859   -1.008544   -0.694982
     28          1           0       -1.780995   -0.026023   -0.811256
     29          1           0       -2.040186    0.617070    0.829781
     30          1           0       -2.162896   -1.608389    1.793758
     31          1           0       -2.989180   -2.919013    0.226962
     32          1           0        0.126617   -2.422063    1.362981
     33          1           0        0.041734   -0.650467    1.642280
     34          1           0        2.228386   -3.111393   -0.415507
     35          1           0        4.711360   -2.750474   -0.324868
     36          1           0        5.632210   -0.451727   -0.106050
     37          1           0        5.256383    2.002717    0.079765
     38          1           0        3.700826    3.933814    0.188678
     39          1           0        1.231169    3.570149    0.077229
     40          1           0        0.314189    1.270171   -0.143135
 ---------------------------------------------------------------------

 SCF Done:  E(RB-P86) =  -827.817419151     A.U. after   11 cycles

 The electronic state is 1-A.
 Alpha  occ. eigenvalues --  -18.79455 -18.77493 -13.98790  -9.96124  -9.95308
 Alpha  occ. eigenvalues --   -9.95079  -9.92455  -9.92034  -9.91917  -9.91547
 Alpha  occ. eigenvalues --   -9.90893  -9.90792  -9.90771  -9.90715  -9.90686
 Alpha  occ. eigenvalues --   -9.90631  -9.90596  -9.88311  -9.88064  -0.97338
 Alpha  occ. eigenvalues --   -0.93866  -0.82729  -0.80344  -0.75497  -0.71954
 Alpha  occ. eigenvalues --   -0.70238  -0.68237  -0.68078  -0.65163  -0.62055
 Alpha  occ. eigenvalues --   -0.60264  -0.57107  -0.56396  -0.54403  -0.52622
 Alpha  occ. eigenvalues --   -0.51357  -0.49141  -0.47191  -0.46072  -0.45217
 Alpha  occ. eigenvalues --   -0.44332  -0.43442  -0.42700  -0.41240  -0.40748
 Alpha  occ. eigenvalues --   -0.39367  -0.38624  -0.38561  -0.37740  -0.36196
 Alpha  occ. eigenvalues --   -0.36139  -0.35628  -0.34875  -0.34307  -0.34085
 Alpha  occ. eigenvalues --   -0.33191  -0.32751  -0.31557  -0.30943  -0.30472
 Alpha  occ. eigenvalues --   -0.30069  -0.29835  -0.29174  -0.28997  -0.26057
 Alpha  occ. eigenvalues --   -0.24316  -0.23887  -0.23402  -0.20314  -0.19532
 Alpha virt. eigenvalues --   -0.08188  -0.05560  -0.02013   0.01134   0.03003
 Alpha virt. eigenvalues --    0.03455   0.03902   0.04442   0.04736   0.05937
 Alpha virt. eigenvalues --    0.06259   0.06791   0.07289   0.08051   0.08317

 Mulliken charges:
               1
     1  C   -0.414420
     2  C   -0.083563
     3  C   -0.405466
     4  N   -0.317170
     5  C   -0.268894
     6  C   -0.030291
     7  O   -0.435998
     8  C   -0.166072
     9  O   -0.254293
    10  C    0.122674
    11  C   -0.194821
    12  C   -0.098308
    13  C   -0.192002
    14  C    0.126551
    15  C   -0.205284
    16  C   -0.100784
    17  C   -0.176124
    18  C   -0.118012
    19  C   -0.139186
    20  H    0.131120
    21  H    0.146731
    22  H    0.147752
    23  H    0.127060
    24  H    0.149430
    25  H    0.143477
    26  H    0.124711
    27  H    0.224560
    28  H    0.140347
    29  H    0.151095
    30  H    0.175163
    31  H    0.316693
    32  H    0.163122
    33  H    0.179485
    34  H    0.141984
    35  H    0.144196
    36  H    0.142616
    37  H    0.142603
    38  H    0.144837
    39  H    0.142319
    40  H    0.172166
 Sum of Mulliken charges =  -0.00000

 Dipole moment (field-independent basis, Debye):
    X=             -0.6345    Y=              1.4250    Z=              1.8477  Tot=              2.4182
 Quadrupole moment (field-independent basis, Debye-Ang):
   XX=            -98.3181   YY=           -107.1113   ZZ=           -119.3138
   XY=              0.3250   XZ=              3.5501   YZ=             -3.4400

 Normal termination of Gaussian 16 at Mon Feb 22 21:13:07 2021.
