 Gaussian 16, Revision C.01,

 -------------------------------------------------------------
 #P BP86/TZVP EmpiricalDispersion=GD3 SCRF=(Solvent=Water) Opt
 -------------------------------------------------------------

 -------------------------------------
 Particle #ARIKQVYYYDITGU-UHFFFAOYSA-N
 -------------------------------------
 Symbolic Z-matrix:
 Charge =  0 Multiplicity = 1

 SCF Done:  E(RB-P86) =  -562.547433771     A.U. after   12 cycles
 SCF Done:  E(RB-P86) =  -562.559002523     A.U. after   11 cycles
 SCF Done:  E(RB-P86) =  -562.559573074     A.U. after   10 cycles
 SCF Done:  E(RB-P86) =  -562.559672961     A.U. after    9 cycles
 SCF Done:  E(RB-P86) =  -562.559688671     A.U. after    8 cycles
 SCF Done:  E(RB-P86) =  -562.559690728     A.U. after    8 cycles
 Optimization completed.
    -- Stationary point found.
 Normal termination of Gaussian 16 at Mon Feb 22 20:58:01 2021.
 Gaussian 16:  ES64L-G16RevC.01  3-Jul-2019

 ---------------------------------------------------------
 # BP86/TZVP SCRF=COSMORS geom=CHECKPOINT guess=CHECKPOINT
 ---------------------------------------------------------

 -------------------------------------------
 COSMO-file for #ARIKQVYYYDITGU-UHFFFAOYSA-N
 -------------------------------------------
 Structure from the checkpoint file:  "ARIKQVYYYDITGU-UHFFFAOYSA-N.chk"
 Charge =  0 Multiplicity = 1

                         Standard orientation:
 ---------------------------------------------------------------------
 Center     Atomic      Atomic             Coordinates (Angstroms)
 Number     Number       Type             X           Y           Z
 ---------------------------------------------------------------------
      1          7           0       -2.574894    0.686970    0.000676
      2          6           0       -1.442764   -0.067559   -0.001594
      3          8           0       -1.428601   -1.299921   -0.000433
      4          7           0       -0.253191    0.688482   -0.005793
      5          6           0        1.016495    0.089350   -0.000264
      6          9           0        1.246192   -0.696237    1.094882
      7          9           0        1.958226    1.073016   -0.002911
      8          9           0        1.250157   -0.706552   -1.086622
      9          1           0       -2.582207    1.701338    0.002579
     10          1           0       -3.464998    0.201448    0.003488
     11          1           0       -0.260962    1.705622   -0.003776
 ---------------------------------------------------------------------

 SCF Done:  E(RB-P86) =  -562.560730432     A.U. after   11 cycles

 The electronic state is 1-A.
 Alpha  occ. eigenvalues --  -24.32763 -24.31955 -24.31943 -18.75264 -14.05480
 Alpha  occ. eigenvalues --  -14.02827 -10.18252 -10.04329  -1.22255  -1.14069
 Alpha  occ. eigenvalues --   -1.13284  -0.98333  -0.88131  -0.83610  -0.66275
 Alpha  occ. eigenvalues --   -0.59592  -0.56531  -0.54961  -0.52658  -0.50989
 Alpha  occ. eigenvalues --   -0.46812  -0.42328  -0.41916  -0.40740  -0.39905
 Alpha  occ. eigenvalues --   -0.39106  -0.37935  -0.37701  -0.36325  -0.26728
 Alpha  occ. eigenvalues --   -0.25241  -0.24941
 Alpha virt. eigenvalues --   -0.01662   0.01831   0.04385   0.06905   0.08782
 Alpha virt. eigenvalues --    0.10233   0.10696   0.10912   0.16151   0.17505
 Alpha virt. eigenvalues --    0.17999   0.19637   0.20719   0.22815   0.24868

 Mulliken charges:
               1
     1  N   -0.395767
     2  C    0.270923
     3  O   -0.445401
     4  N   -0.313650
     5  C    0.380715
     6  F   -0.142143
     7  F   -0.147382
     8  F   -0.141748
     9  H    0.301197
    10  H    0.298187
    11  H    0.335068
 Sum of Mulliken charges =  -0.00000

 Dipole moment (field-independent basis, Debye):
    X=             -3.7652    Y=              6.9791    Z=              0.0069  Tot=              7.9300
 Quadrupole moment (field-independent basis, Debye-Ang):
   XX=            -35.0649   YY=            -42.5892   ZZ=            -46.6757
   XY=             -8.9687   XZ=             -0.0319   YZ=              0.0088

 Normal termination of Gaussian 16 at Mon Feb 22 20:58:08 2021.
