 Gaussian 16, Revision C.01,

 -------------------------------------------------------------
 #P BP86/TZVP EmpiricalDispersion=GD3 SCRF=(Solvent=Water) Opt
 -------------------------------------------------------------

 -------------------------------------
 Particle #BXWNKGSJHAJOGX-UHFFFAOYSA-N
 -------------------------------------
 Symbolic Z-matrix:
 Charge =  0 Multiplicity = 1

 SCF Done:  E(RB-P86) =  -705.678210848     A.U. after   11 cycles
 SCF Done:  E(RB-P86) =  -705.684221092     A.U. after    9 cycles
 SCF Done:  E(RB-P86) =  -705.684938791     A.U. after    8 cycles
 SCF Done:  E(RB-P86) =  -705.684965410     A.U. after    7 cycles
 SCF Done:  E(RB-P86) =  -705.684966002     A.U. after    6 cycles
 Optimization completed.
    -- Stationary point found.
 Normal termination of Gaussian 16 at Mon Feb 22 21:01:14 2021.
 Gaussian 16:  ES64L-G16RevC.01  3-Jul-2019

 ---------------------------------------------------------
 # BP86/TZVP SCRF=COSMORS geom=CHECKPOINT guess=CHECKPOINT
 ---------------------------------------------------------

 -------------------------------------------
 COSMO-file for #BXWNKGSJHAJOGX-UHFFFAOYSA-N
 -------------------------------------------
 Structure from the checkpoint file:  "BXWNKGSJHAJOGX-UHFFFAOYSA-N.chk"
 Charge =  0 Multiplicity = 1

                         Standard orientation:
 ---------------------------------------------------------------------
 Center     Atomic      Atomic             Coordinates (Angstroms)
 Number     Number       Type             X           Y           Z
 ---------------------------------------------------------------------
      1          6           0      -10.246098   -0.397101   -0.000000
      2          6           0       -8.971199    0.455710    0.000000
      3          6           0       -7.686592   -0.384118   -0.000000
      4          6           0       -6.403165    0.456506    0.000000
      5          6           0       -5.119940   -0.384596   -0.000000
      6          6           0       -3.836265    0.455805    0.000000
      7          6           0       -2.553363   -0.385751   -0.000000
      8          6           0       -1.269257    0.453988    0.000000
      9          6           0        0.013107   -0.388380   -0.000000
     10          6           0        1.297794    0.450461   -0.000000
     11          6           0        2.579309   -0.393172   -0.000000
     12          6           0        3.864561    0.444759   -0.000000
     13          6           0        5.144353   -0.401162   -0.000000
     14          6           0        6.429492    0.437145   -0.000000
     15          6           0        7.704529   -0.416860    0.000000
     16          6           0        8.973377    0.424198   -0.000000
     17          8           0       10.111728   -0.468044    0.000000
     18          1           0      -11.153178    0.226854    0.000000
     19          1           0      -10.285851   -1.047574   -0.888854
     20          1           0      -10.285851   -1.047575    0.888853
     21          1           0       -8.968753    1.119864    0.882623
     22          1           0       -8.968753    1.119865   -0.882622
     23          1           0       -7.687209   -1.049405   -0.883194
     24          1           0       -7.687209   -1.049405    0.883194
     25          1           0       -6.402980    1.121467   -0.883260
     26          1           0       -6.402980    1.121466    0.883261
     27          1           0       -5.120089   -1.049588    0.883213
     28          1           0       -5.120089   -1.049588   -0.883214
     29          1           0       -3.835958    1.120769    0.883241
     30          1           0       -3.835958    1.120770   -0.883240
     31          1           0       -2.553830   -1.050749    0.883221
     32          1           0       -2.553830   -1.050748   -0.883222
     33          1           0       -1.268586    1.118938    0.883248
     34          1           0       -1.268586    1.118938   -0.883247
     35          1           0        0.012197   -1.053368   -0.883219
     36          1           0        0.012197   -1.053369    0.883218
     37          1           0        1.299032    1.115361    0.883265
     38          1           0        1.299032    1.115361   -0.883265
     39          1           0        2.577826   -1.058088    0.883233
     40          1           0        2.577826   -1.058088   -0.883233
     41          1           0        3.866554    1.109443    0.883350
     42          1           0        3.866554    1.109443   -0.883351
     43          1           0        5.142605   -1.065483    0.883377
     44          1           0        5.142605   -1.065484   -0.883376
     45          1           0        6.430437    1.100768    0.883613
     46          1           0        6.430437    1.100768   -0.883614
     47          1           0        7.713025   -1.073797   -0.886995
     48          1           0        7.713025   -1.073796    0.886996
     49          1           0        8.991455    1.077443    0.893926
     50          1           0        8.991455    1.077442   -0.893927
     51          1           0       10.915740    0.080900    0.000000
 ---------------------------------------------------------------------

 SCF Done:  E(RB-P86) =  -705.641631197     A.U. after    9 cycles

 The electronic state is 1-A.
 Alpha  occ. eigenvalues --  -18.76874  -9.93680  -9.88919  -9.88898  -9.88709
 Alpha  occ. eigenvalues --   -9.88627  -9.88514  -9.88484  -9.88472  -9.88470
 Alpha  occ. eigenvalues --   -9.88467  -9.88464  -9.88461  -9.88456  -9.88454
 Alpha  occ. eigenvalues --   -9.88451  -9.88052  -0.93022  -0.73829  -0.73253
 Alpha  occ. eigenvalues --   -0.72213  -0.70740  -0.68868  -0.66630  -0.64075
 Alpha  occ. eigenvalues --   -0.61272  -0.58330  -0.55437  -0.52983  -0.51848
 Alpha  occ. eigenvalues --   -0.51488  -0.51304  -0.50800  -0.50667  -0.45584
 Alpha  occ. eigenvalues --   -0.43587  -0.43131  -0.42277  -0.41070  -0.39557
 Alpha  occ. eigenvalues --   -0.38602  -0.38519  -0.37798  -0.37397  -0.36981
 Alpha  occ. eigenvalues --   -0.35875  -0.35719  -0.34199  -0.33900  -0.33876
 Alpha  occ. eigenvalues --   -0.32077  -0.32004  -0.31234  -0.30347  -0.30340
 Alpha  occ. eigenvalues --   -0.29600  -0.29029  -0.28964  -0.28566  -0.28170
 Alpha  occ. eigenvalues --   -0.28146  -0.27990  -0.27665  -0.27493  -0.27386
 Alpha  occ. eigenvalues --   -0.27365  -0.27330  -0.25180  -0.23172
 Alpha virt. eigenvalues --    0.02175   0.02505   0.02712   0.03187   0.03892
 Alpha virt. eigenvalues --    0.04738   0.04781   0.04924   0.05442   0.05570
 Alpha virt. eigenvalues --    0.05993   0.06640   0.06738   0.07637   0.08326

 Mulliken charges:
               1
     1  C   -0.418568
     2  C   -0.227860
     3  C   -0.259863
     4  C   -0.243481
     5  C   -0.253038
     6  C   -0.251312
     7  C   -0.252316
     8  C   -0.251224
     9  C   -0.252065
    10  C   -0.251229
    11  C   -0.253172
    12  C   -0.249630
    13  C   -0.255630
    14  C   -0.274847
    15  C   -0.197519
    16  C   -0.173031
    17  O   -0.437232
    18  H    0.144449
    19  H    0.131676
    20  H    0.131685
    21  H    0.126653
    22  H    0.126654
    23  H    0.122689
    24  H    0.122692
    25  H    0.123653
    26  H    0.123652
    27  H    0.125213
    28  H    0.125212
    29  H    0.125569
    30  H    0.125569
    31  H    0.125676
    32  H    0.125676
    33  H    0.125649
    34  H    0.125649
    35  H    0.125679
    36  H    0.125678
    37  H    0.125787
    38  H    0.125788
    39  H    0.126013
    40  H    0.126014
    41  H    0.126394
    42  H    0.126394
    43  H    0.127614
    44  H    0.127614
    45  H    0.129401
    46  H    0.129408
    47  H    0.127030
    48  H    0.127023
    49  H    0.128477
    50  H    0.128475
    51  H    0.311213
 Sum of Mulliken charges =  -0.00000

 Dipole moment (field-independent basis, Debye):
    X=             -0.0332    Y=              2.2354    Z=             -0.0000  Tot=              2.2357
 Quadrupole moment (field-independent basis, Debye-Ang):
   XX=           -115.0921   YY=           -117.9589   ZZ=           -112.5673
   XY=             21.5228   XZ=              0.0012   YZ=              0.0000

 Normal termination of Gaussian 16 at Mon Feb 22 21:01:52 2021.
