 Gaussian 16, Revision C.01,

 -------------------------------------------------------------
 #P BP86/TZVP EmpiricalDispersion=GD3 SCRF=(Solvent=Water) Opt
 -------------------------------------------------------------

 -------------------------------------
 Particle #BYHDDXPKOZIZRV-UHFFFAOYSA-N
 -------------------------------------
 Symbolic Z-matrix:
 Charge =  0 Multiplicity = 1

 SCF Done:  E(RB-P86) =  -578.272613368     A.U. after   15 cycles
 SCF Done:  E(RB-P86) =  -578.297274442     A.U. after   11 cycles
 SCF Done:  E(RB-P86) =  -578.299831615     A.U. after   11 cycles
 SCF Done:  E(RB-P86) =  -578.299897623     A.U. after   10 cycles
 SCF Done:  E(RB-P86) =  -578.299950018     A.U. after   10 cycles
 SCF Done:  E(RB-P86) =  -578.299982187     A.U. after    9 cycles
 SCF Done:  E(RB-P86) =  -578.299984262     A.U. after    8 cycles
 SCF Done:  E(RB-P86) =  -578.299985021     A.U. after    8 cycles
 SCF Done:  E(RB-P86) =  -578.299986747     A.U. after    8 cycles
 SCF Done:  E(RB-P86) =  -578.299989248     A.U. after   10 cycles
 SCF Done:  E(RB-P86) =  -578.299998472     A.U. after    9 cycles
 SCF Done:  E(RB-P86) =  -578.300001908     A.U. after   10 cycles
 SCF Done:  E(RB-P86) =  -578.300004210     A.U. after    9 cycles
 SCF Done:  E(RB-P86) =  -578.300004281     A.U. after    8 cycles
 SCF Done:  E(RB-P86) =  -578.300004478     A.U. after    8 cycles
 SCF Done:  E(RB-P86) =  -578.300004630     A.U. after    7 cycles
 SCF Done:  E(RB-P86) =  -578.300004766     A.U. after    7 cycles
 SCF Done:  E(RB-P86) =  -578.300005064     A.U. after    7 cycles
 SCF Done:  E(RB-P86) =  -578.300005043     A.U. after    7 cycles
 Optimization completed.
    -- Stationary point found.
 Normal termination of Gaussian 16 at Mon Feb 22 21:05:04 2021.
 Gaussian 16:  ES64L-G16RevC.01  3-Jul-2019

 ---------------------------------------------------------
 # BP86/TZVP SCRF=COSMORS geom=CHECKPOINT guess=CHECKPOINT
 ---------------------------------------------------------

 -------------------------------------------
 COSMO-file for #BYHDDXPKOZIZRV-UHFFFAOYSA-N
 -------------------------------------------
 Structure from the checkpoint file:  "BYHDDXPKOZIZRV-UHFFFAOYSA-N.chk"
 Charge =  0 Multiplicity = 1

                         Standard orientation:
 ---------------------------------------------------------------------
 Center     Atomic      Atomic             Coordinates (Angstroms)
 Number     Number       Type             X           Y           Z
 ---------------------------------------------------------------------
      1          8           0       -4.926368   -1.107800   -0.093237
      2          6           0       -4.235610   -0.113329   -0.261111
      3          8           0       -4.666096    1.141218    0.060337
      4          6           0       -2.820015   -0.103882   -0.784654
      5          6           0       -1.800513   -0.010306    0.373046
      6          6           0       -0.354407   -0.034195   -0.134367
      7          6           0        0.674840    0.055026    1.011197
      8          6           0        2.097172    0.030276    0.498297
      9          6           0        2.755497    1.221009    0.144251
     10          6           0        4.053268    1.197462   -0.380540
     11          6           0        4.715926   -0.023309   -0.562507
     12          6           0        4.070697   -1.217414   -0.215523
     13          6           0        2.772908   -1.187978    0.308882
     14          1           0       -5.568426    1.056445    0.437387
     15          1           0       -2.685905    0.750664   -1.465283
     16          1           0       -2.665673   -1.032722   -1.350828
     17          1           0       -1.962675   -0.850713    1.069014
     18          1           0       -1.979678    0.916596    0.942310
     19          1           0       -0.191309    0.805033   -0.832563
     20          1           0       -0.175790   -0.959632   -0.708750
     21          1           0        0.513110   -0.785494    1.706674
     22          1           0        0.498950    0.982116    1.582078
     23          1           0        2.243730    2.177248    0.285589
     24          1           0        4.549640    2.134209   -0.644773
     25          1           0        5.729483   -0.043770   -0.968884
     26          1           0        4.580792   -2.174142   -0.350297
     27          1           0        2.274890   -2.123349    0.579706
 ---------------------------------------------------------------------

 SCF Done:  E(RB-P86) =  -578.282617511     A.U. after   12 cycles

 The electronic state is 1-A.
 Alpha  occ. eigenvalues --  -18.81989 -18.76943 -10.03223  -9.91047  -9.91046
 Alpha  occ. eigenvalues --   -9.90291  -9.90251  -9.90248  -9.90098  -9.90027
 Alpha  occ. eigenvalues --   -9.90026  -9.89720  -9.89616  -1.02110  -0.93879
 Alpha  occ. eigenvalues --   -0.78436  -0.74026  -0.70771  -0.67691  -0.66229
 Alpha  occ. eigenvalues --   -0.60504  -0.55397  -0.54732  -0.53252  -0.51892
 Alpha  occ. eigenvalues --   -0.46091  -0.45221  -0.43401  -0.42875  -0.41607
 Alpha  occ. eigenvalues --   -0.40625  -0.40261  -0.37490  -0.37381  -0.36807
 Alpha  occ. eigenvalues --   -0.36295  -0.34842  -0.33380  -0.32142  -0.31719
 Alpha  occ. eigenvalues --   -0.30421  -0.29985  -0.29227  -0.29121  -0.28489
 Alpha  occ. eigenvalues --   -0.24628  -0.23402  -0.22438
 Alpha virt. eigenvalues --   -0.05032  -0.04631  -0.04278   0.02209   0.03402
 Alpha virt. eigenvalues --    0.04952   0.05494   0.05819   0.07190   0.08104
 Alpha virt. eigenvalues --    0.08539   0.09229   0.09528   0.10193   0.10331

 Mulliken charges:
               1
     1  O   -0.365047
     2  C    0.210896
     3  O   -0.281010
     4  C   -0.262727
     5  C   -0.284718
     6  C   -0.276472
     7  C   -0.331197
     8  C    0.065123
     9  C   -0.177376
    10  C   -0.130769
    11  C   -0.166694
    12  C   -0.130820
    13  C   -0.177112
    14  H    0.329824
    15  H    0.167998
    16  H    0.166108
    17  H    0.146610
    18  H    0.154150
    19  H    0.145745
    20  H    0.146416
    21  H    0.162417
    22  H    0.162770
    23  H    0.143988
    24  H    0.144842
    25  H    0.148132
    26  H    0.144953
    27  H    0.143970
 Sum of Mulliken charges =  -0.00000

 Dipole moment (field-independent basis, Debye):
    X=              0.8618    Y=              1.9727    Z=              0.1269  Tot=              2.1564
 Quadrupole moment (field-independent basis, Debye-Ang):
   XX=            -84.1972   YY=            -77.1977   ZZ=            -79.6184
   XY=            -12.5167   XZ=             -4.8893   YZ=             -0.0231

 Normal termination of Gaussian 16 at Mon Feb 22 21:05:24 2021.
