 Gaussian 16, Revision C.01,

 -------------------------------------------------------------
 #P BP86/TZVP EmpiricalDispersion=GD3 SCRF=(Solvent=Water) Opt
 -------------------------------------------------------------

 -------------------------------------
 Particle #DBQUKJMNGUJRFI-UHFFFAOYSA-N
 -------------------------------------
 Symbolic Z-matrix:
 Charge =  0 Multiplicity = 1

 SCF Done:  E(RB-P86) =  -828.675756723     A.U. after   12 cycles
 SCF Done:  E(RB-P86) =  -828.686748389     A.U. after   10 cycles
 SCF Done:  E(RB-P86) =  -828.689802762     A.U. after   10 cycles
 SCF Done:  E(RB-P86) =  -828.690670352     A.U. after   10 cycles
 SCF Done:  E(RB-P86) =  -828.690879385     A.U. after    9 cycles
 SCF Done:  E(RB-P86) =  -828.690936018     A.U. after    9 cycles
 SCF Done:  E(RB-P86) =  -828.690970428     A.U. after    8 cycles
 SCF Done:  E(RB-P86) =  -828.691000285     A.U. after    8 cycles
 SCF Done:  E(RB-P86) =  -828.691011020     A.U. after    8 cycles
 SCF Done:  E(RB-P86) =  -828.691032023     A.U. after    8 cycles
 SCF Done:  E(RB-P86) =  -828.692826694     A.U. after    7 cycles
 SCF Done:  E(RB-P86) =  -828.692834807     A.U. after    7 cycles
 SCF Done:  E(RB-P86) =  -828.692846422     A.U. after    7 cycles
 SCF Done:  E(RB-P86) =  -828.692863276     A.U. after    8 cycles
 SCF Done:  E(RB-P86) =  -828.692870378     A.U. after    8 cycles
 SCF Done:  E(RB-P86) =  -828.692873916     A.U. after    8 cycles
 SCF Done:  E(RB-P86) =  -828.692877300     A.U. after    8 cycles
 SCF Done:  E(RB-P86) =  -828.692877711     A.U. after    6 cycles
 SCF Done:  E(RB-P86) =  -828.692877368     A.U. after    7 cycles
 Optimization completed.
    -- Stationary point found.

  BP86/TZVP EmpiricalDispersion=GD3 SCRF=(Solvent=Water) Opt\\Particle
 #DBQUKJMNGUJRFI-UHFFFAOYSA-N\\0,1\C,0.7556469739,-0.8292196339,-1.5311
 750995\C,1.0514141076,0.4200710624,-0.7140736822\N,0.0057809872,0.7135
 244082,0.3432207025\C,-0.1940658707,-0.4302669068,1.3312202793\C,-1.39
 68411456,-1.3049217468,1.0016877733\C,0.3308860222,2.0108186084,1.0573
 744746\C,-0.8891636377,2.6589596781,1.7177113437\O,-1.6947536437,3.411
 9247188,0.8114065115\Cl,-2.5414580235,1.27553504,-1.2876859319\H,0.826
 8455983,-1.7486181774,-0.9347718091\H,-0.2418438308,-0.7709180509,-1.9

 Normal termination of Gaussian 16 at Sat Aug 21 09:54:00 2021.
 Gaussian 16:  ES64L-G16RevC.01  3-Jul-2019

 ---------------------------------------------------------
 # BP86/TZVP SCRF=COSMORS geom=CHECKPOINT guess=CHECKPOINT
 ---------------------------------------------------------

 -------------------------------------------
 COSMO-file for #DBQUKJMNGUJRFI-UHFFFAOYSA-N
 -------------------------------------------
 Structure from the checkpoint file:  "DBQUKJMNGUJRFI-UHFFFAOYSA-N.chk"
 Charge =  0 Multiplicity = 1

                         Standard orientation:
 ---------------------------------------------------------------------
 Center     Atomic      Atomic             Coordinates (Angstroms)
 Number     Number       Type             X           Y           Z
 ---------------------------------------------------------------------
      1          6           0       -2.578358    0.441494   -1.043591
      2          6           0       -1.433101   -0.516493   -1.337711
      3          7           0       -0.431500   -0.628332   -0.205624
      4          6           0       -1.055538   -1.068851    1.113792
      5          6           0       -1.342660    0.090790    2.058819
      6          6           0        0.714289   -1.536871   -0.606130
      7          6           0        1.992628   -1.287634    0.199092
      8          8           0        2.760518   -0.183235   -0.278367
      9         17           0        0.771836    2.196584   -0.015952
     10          1           0       -3.236976    0.076926   -0.243983
     11          1           0       -2.197648    1.437140   -0.774109
     12          1           0       -3.186092    0.541492   -1.953739
     13          1           0       -0.856884   -0.166549   -2.205184
     14          1           0       -1.790861   -1.534909   -1.547205
     15          1           0       -0.032523    0.358330   -0.077660
     16          1           0       -1.959845   -1.639945    0.862981
     17          1           0       -0.350074   -1.765938    1.582388
     18          1           0       -0.419594    0.631871    2.307885
     19          1           0       -1.772616   -0.313998    2.986004
     20          1           0       -2.054649    0.810065    1.635981
     21          1           0        0.924042   -1.353433   -1.668339
     22          1           0        0.357292   -2.570125   -0.491458
     23          1           0        2.624631   -2.181190    0.090565
     24          1           0        1.759293   -1.187391    1.276947
     25          1           0        2.224106    0.645314   -0.149206
 ---------------------------------------------------------------------

 SCF Done:  E(RB-P86) =  -828.671377262     A.U. after   10 cycles

 The electronic state is 1-A.
 Alpha  occ. eigenvalues -- -100.67135 -18.76487 -14.09967  -9.95112  -9.94744
 Alpha  occ. eigenvalues --   -9.94726  -9.94643  -9.89649  -9.89474  -9.11005
 Alpha  occ. eigenvalues --   -6.92893  -6.92817  -6.92742  -0.93400  -0.90866
 Alpha  occ. eigenvalues --   -0.71407  -0.71065  -0.67007  -0.65770  -0.59110
 Alpha  occ. eigenvalues --   -0.57584  -0.57096  -0.48121  -0.47029  -0.45766
 Alpha  occ. eigenvalues --   -0.43689  -0.41944  -0.38961  -0.38512  -0.37556
 Alpha  occ. eigenvalues --   -0.36717  -0.35376  -0.34189  -0.33668  -0.32829
 Alpha  occ. eigenvalues --   -0.32063  -0.30964  -0.30068  -0.24387  -0.23720
 Alpha  occ. eigenvalues --   -0.23481  -0.23105
 Alpha virt. eigenvalues --    0.02050   0.03008   0.04266   0.04751   0.05269
 Alpha virt. eigenvalues --    0.05846   0.06741   0.07382   0.08016   0.08630
 Alpha virt. eigenvalues --    0.08985   0.10206   0.10823   0.11203   0.11739

 Mulliken charges:
               1
     1  C   -0.449588
     2  C   -0.166085
     3  N   -0.103231
     4  C   -0.236381
     5  C   -0.405475
     6  C   -0.264456
     7  C   -0.147393
     8  O   -0.396737
     9  Cl  -0.724857
    10  H    0.171855
    11  H    0.151700
    12  H    0.173293
    13  H    0.180781
    14  H    0.198016
    15  H    0.174568
    16  H    0.210413
    17  H    0.199861
    18  H    0.148627
    19  H    0.167625
    20  H    0.168906
    21  H    0.182320
    22  H    0.207394
    23  H    0.167362
    24  H    0.153781
    25  H    0.237699
 Sum of Mulliken charges =  -0.00000

 Dipole moment (field-independent basis, Debye):
    X=             -7.8673    Y=            -11.0467    Z=              0.1353  Tot=             13.5625
 Quadrupole moment (field-independent basis, Debye-Ang):
   XX=            -72.7323   YY=            -76.0544   ZZ=            -60.6957
   XY=             -5.6066   XZ=              2.9506   YZ=             -0.2790

 86/TZVP SCRF=COSMORS geom=CHECKPOINT guess=CHECKPOINT\\COSMO-file for
 #DBQUKJMNGUJRFI-UHFFFAOYSA-N\\0,1\C,0,0.7556469739,-0.8292196339,-1.53
 11750995\C,0,1.0514141076,0.4200710624,-0.7140736822\N,0,0.0057809872,
 0.7135244082,0.3432207025\C,0,-0.1940658707,-0.4302669068,1.3312202793
 \C,0,-1.3968411456,-1.3049217468,1.0016877733\C,0,0.3308860222,2.01081
 86084,1.0573744746\C,0,-0.8891636377,2.6589596781,1.7177113437\O,0,-1.
 6947536437,3.4119247188,0.8114065115\Cl,0,-2.5414580235,1.27553504,-1.
 2876859319\H,0,0.8268455983,-1.7486181774,-0.9347718091\H,0,-0.2418438

 Normal termination of Gaussian 16 at Sat Aug 21 09:54:17 2021.
