 Gaussian 16, Revision C.01,

 -------------------------------------------------------------
 #P BP86/TZVP EmpiricalDispersion=GD3 SCRF=(Solvent=Water) Opt
 -------------------------------------------------------------

 -------------------------------------
 Particle #DKYWVDODHFEZIM-UHFFFAOYSA-N
 -------------------------------------
 Symbolic Z-matrix:
 Charge =  0 Multiplicity = 1

 SCF Done:  E(RB-P86) =  -844.107096452     A.U. after   16 cycles
 SCF Done:  E(RB-P86) =  -844.146163425     A.U. after   12 cycles
 SCF Done:  E(RB-P86) =  -844.156774089     A.U. after   12 cycles
 SCF Done:  E(RB-P86) =  -844.157236770     A.U. after   12 cycles
 SCF Done:  E(RB-P86) =  -844.157434776     A.U. after   11 cycles
 SCF Done:  E(RB-P86) =  -844.157589824     A.U. after   11 cycles
 SCF Done:  E(RB-P86) =  -844.157755077     A.U. after   11 cycles
 SCF Done:  E(RB-P86) =  -844.157945201     A.U. after   12 cycles
 SCF Done:  E(RB-P86) =  -844.158124366     A.U. after   11 cycles
 SCF Done:  E(RB-P86) =  -844.158198276     A.U. after   11 cycles
 SCF Done:  E(RB-P86) =  -844.158224463     A.U. after   10 cycles
 SCF Done:  E(RB-P86) =  -844.158278584     A.U. after   11 cycles
 SCF Done:  E(RB-P86) =  -844.158293733     A.U. after   11 cycles
 SCF Done:  E(RB-P86) =  -844.158294941     A.U. after    8 cycles
 SCF Done:  E(RB-P86) =  -844.158296692     A.U. after   10 cycles
 SCF Done:  E(RB-P86) =  -844.158296635     A.U. after    8 cycles
 SCF Done:  E(RB-P86) =  -844.158296702     A.U. after    8 cycles
 Optimization completed.
    -- Stationary point found.
 Normal termination of Gaussian 16 at Mon Feb 22 21:11:54 2021.
 Gaussian 16:  ES64L-G16RevC.01  3-Jul-2019

 ---------------------------------------------------------
 # BP86/TZVP SCRF=COSMORS geom=CHECKPOINT guess=CHECKPOINT
 ---------------------------------------------------------

 -------------------------------------------
 COSMO-file for #DKYWVDODHFEZIM-UHFFFAOYSA-N
 -------------------------------------------
 Structure from the checkpoint file:  "DKYWVDODHFEZIM-UHFFFAOYSA-N.chk"
 Charge =  0 Multiplicity = 1

                         Standard orientation:
 ---------------------------------------------------------------------
 Center     Atomic      Atomic             Coordinates (Angstroms)
 Number     Number       Type             X           Y           Z
 ---------------------------------------------------------------------
      1          6           0       -2.293818   -1.813397    1.624748
      2          6           0       -2.831872   -0.873877    0.534263
      3          6           0       -2.820504   -1.552649   -0.832146
      4          8           0       -2.031940   -2.414593   -1.185846
      5          8           0       -3.785573   -1.049197   -1.648182
      6          6           0       -2.016668    0.414144    0.433559
      7          6           0       -2.595013    1.657205    0.727680
      8          6           0       -1.835405    2.833175    0.652190
      9          6           0       -0.494288    2.778397    0.274986
     10          6           0        0.106170    1.536691   -0.007506
     11          6           0        1.536974    1.508230   -0.451005
     12          8           0        2.016042    2.463396   -1.076537
     13          6           0        2.379263    0.312319   -0.130610
     14          6           0        2.195313   -0.436565    1.048065
     15          6           0        3.046094   -1.506300    1.341608
     16          6           0        4.071692   -1.851440    0.452997
     17          6           0        4.260363   -1.110992   -0.723398
     18          6           0        3.428176   -0.027582   -1.006662
     19          6           0       -0.662934    0.363730    0.071605
     20          1           0       -1.263620   -2.122793    1.400528
     21          1           0       -2.300834   -1.296331    2.594169
     22          1           0       -2.915118   -2.717117    1.702243
     23          1           0       -3.873735   -0.600131    0.756582
     24          1           0       -3.693112   -1.484988   -2.523238
     25          1           0       -3.646883    1.707367    1.019003
     26          1           0       -2.297980    3.793191    0.889565
     27          1           0        0.106386    3.686806    0.203439
     28          1           0        1.402227   -0.166211    1.747240
     29          1           0        2.906756   -2.072806    2.264360
     30          1           0        4.727313   -2.695307    0.677654
     31          1           0        5.058878   -1.381318   -1.417238
     32          1           0        3.570559    0.564109   -1.912996
     33          1           0       -0.210331   -0.597841   -0.179029
 ---------------------------------------------------------------------

 SCF Done:  E(RB-P86) =  -844.131221303     A.U. after   12 cycles

 The electronic state is 1-A.
 Alpha  occ. eigenvalues --  -18.82419 -18.77410 -18.76968 -10.03633  -9.99698
 Alpha  occ. eigenvalues --   -9.93004  -9.92897  -9.92497  -9.92365  -9.91822
 Alpha  occ. eigenvalues --   -9.91751  -9.91642  -9.91581  -9.91559  -9.91514
 Alpha  occ. eigenvalues --   -9.91370  -9.91235  -9.91230  -9.89444  -1.02600
 Alpha  occ. eigenvalues --   -0.96389  -0.94413  -0.80437  -0.79421  -0.74556
 Alpha  occ. eigenvalues --   -0.71464  -0.69187  -0.68752  -0.67517  -0.61771
 Alpha  occ. eigenvalues --   -0.60331  -0.57042  -0.56330  -0.55491  -0.52904
 Alpha  occ. eigenvalues --   -0.50333  -0.48291  -0.46665  -0.45683  -0.44196
 Alpha  occ. eigenvalues --   -0.43294  -0.42511  -0.42020  -0.41464  -0.40211
 Alpha  occ. eigenvalues --   -0.39518  -0.39149  -0.38626  -0.38337  -0.37185
 Alpha  occ. eigenvalues --   -0.36639  -0.35795  -0.34444  -0.33859  -0.33165
 Alpha  occ. eigenvalues --   -0.32807  -0.32324  -0.31642  -0.31028  -0.30862
 Alpha  occ. eigenvalues --   -0.29596  -0.25603  -0.24925  -0.24814  -0.24494
 Alpha  occ. eigenvalues --   -0.23772  -0.22610
 Alpha virt. eigenvalues --   -0.11233  -0.06587  -0.06453  -0.05241  -0.04263
 Alpha virt. eigenvalues --   -0.00397   0.02332   0.03518   0.04533   0.05163
 Alpha virt. eigenvalues --    0.05928   0.06876   0.07514   0.07653   0.08525

 Mulliken charges:
               1
     1  C   -0.427644
     2  C   -0.185742
     3  C    0.197102
     4  O   -0.341242
     5  O   -0.267489
     6  C   -0.039946
     7  C   -0.118624
     8  C   -0.113010
     9  C   -0.160649
    10  C    0.032246
    11  C    0.071802
    12  O   -0.328742
    13  C   -0.030782
    14  C   -0.111828
    15  C   -0.152320
    16  C   -0.123129
    17  C   -0.133903
    18  C   -0.141448
    19  C   -0.141831
    20  H    0.159970
    21  H    0.156462
    22  H    0.163367
    23  H    0.205078
    24  H    0.330797
    25  H    0.150669
    26  H    0.146645
    27  H    0.150729
    28  H    0.205407
    29  H    0.153489
    30  H    0.156154
    31  H    0.153358
    32  H    0.153328
    33  H    0.231724
 Sum of Mulliken charges =  -0.00000

 Dipole moment (field-independent basis, Debye):
    X=             -3.3416    Y=             -2.4266    Z=              2.9535  Tot=              5.0772
 Quadrupole moment (field-independent basis, Debye-Ang):
   XX=            -93.3549   YY=           -116.8133   ZZ=           -103.9237
   XY=            -14.8983   XZ=              1.1228   YZ=              3.1402

 Normal termination of Gaussian 16 at Mon Feb 22 21:12:37 2021.
