 Gaussian 16, Revision C.01,

 -------------------------------------------------------------
 #P BP86/TZVP EmpiricalDispersion=GD3 SCRF=(Solvent=Water) Opt
 -------------------------------------------------------------

 -------------------------------------
 Particle #DNIAPMSPPWPWGF-UHFFFAOYSA-N
 -------------------------------------
 Symbolic Z-matrix:
 Charge =  0 Multiplicity = 1

 SCF Done:  E(RB-P86) =  -269.684321803     A.U. after   11 cycles
 SCF Done:  E(RB-P86) =  -269.687677498     A.U. after   10 cycles
 SCF Done:  E(RB-P86) =  -269.688003661     A.U. after    9 cycles
 SCF Done:  E(RB-P86) =  -269.688041708     A.U. after    9 cycles
 SCF Done:  E(RB-P86) =  -269.688046996     A.U. after    8 cycles
 SCF Done:  E(RB-P86) =  -269.688047819     A.U. after    7 cycles
 SCF Done:  E(RB-P86) =  -269.688048006     A.U. after    7 cycles
 SCF Done:  E(RB-P86) =  -269.688048440     A.U. after    7 cycles
 SCF Done:  E(RB-P86) =  -269.688048665     A.U. after    7 cycles
 SCF Done:  E(RB-P86) =  -269.688048835     A.U. after    7 cycles
 Optimization completed.
    -- Stationary point found.
 Normal termination of Gaussian 16 at Mon Feb 22 20:59:20 2021.
 Gaussian 16:  ES64L-G16RevC.01  3-Jul-2019

 ---------------------------------------------------------
 # BP86/TZVP SCRF=COSMORS geom=CHECKPOINT guess=CHECKPOINT
 ---------------------------------------------------------

 -------------------------------------------
 COSMO-file for #DNIAPMSPPWPWGF-UHFFFAOYSA-N
 -------------------------------------------
 Structure from the checkpoint file:  "DNIAPMSPPWPWGF-UHFFFAOYSA-N.chk"
 Charge =  0 Multiplicity = 1

                         Standard orientation:
 ---------------------------------------------------------------------
 Center     Atomic      Atomic             Coordinates (Angstroms)
 Number     Number       Type             X           Y           Z
 ---------------------------------------------------------------------
      1          6           0       -1.699093   -0.771341   -0.009090
      2          6           0       -0.441847    0.043565   -0.320137
      3          8           0       -0.538164    1.382458    0.225191
      4          6           0        0.794946   -0.600665    0.285085
      5          8           0        1.972639    0.059183   -0.218726
      6          1           0       -1.644732   -1.773847   -0.460309
      7          1           0       -1.829333   -0.879537    1.078836
      8          1           0       -2.590384   -0.268642   -0.414086
      9          1           0       -0.296163    0.098986   -1.416985
     10          1           0       -1.312397    1.807358   -0.185780
     11          1           0        0.797938   -1.673083    0.015296
     12          1           0        0.731951   -0.519911    1.387375
     13          1           0        2.743282   -0.353800    0.208789
 ---------------------------------------------------------------------

 SCF Done:  E(RB-P86) =  -269.686235632     A.U. after   10 cycles

 The electronic state is 1-A.
 Alpha  occ. eigenvalues --  -18.77140 -18.76976  -9.94901  -9.94044  -9.88734
 Alpha  occ. eigenvalues --   -0.94253  -0.92609  -0.70161  -0.61681  -0.53004
 Alpha  occ. eigenvalues --   -0.47150  -0.46238  -0.39896  -0.38218  -0.37235
 Alpha  occ. eigenvalues --   -0.33665  -0.33218  -0.31237  -0.28436  -0.23957
 Alpha  occ. eigenvalues --   -0.23173
 Alpha virt. eigenvalues --    0.01970   0.02925   0.05423   0.07741   0.08670
 Alpha virt. eigenvalues --    0.09681   0.10584   0.12032   0.13483   0.14805
 Alpha virt. eigenvalues --    0.16010   0.16552   0.20761   0.22697   0.25965

 Mulliken charges:
               1
     1  C   -0.454427
     2  C   -0.011278
     3  O   -0.434452
     4  C   -0.146129
     5  O   -0.434123
     6  H    0.144797
     7  H    0.139490
     8  H    0.160121
     9  H    0.140957
    10  H    0.310510
    11  H    0.138725
    12  H    0.131090
    13  H    0.314718
 Sum of Mulliken charges =  -0.00000

 Dipole moment (field-independent basis, Debye):
    X=             -1.4716    Y=             -2.6497    Z=             -0.0726  Tot=              3.0318
 Quadrupole moment (field-independent basis, Debye-Ang):
   XX=            -25.8243   YY=            -31.7283   ZZ=            -32.4484
   XY=             -5.8565   XZ=              4.6116   YZ=             -2.1827

 Normal termination of Gaussian 16 at Mon Feb 22 20:59:26 2021.
