 Gaussian 16, Revision C.01,

 -------------------------------------------------------------
 #P BP86/TZVP EmpiricalDispersion=GD3 SCRF=(Solvent=Water) Opt
 -------------------------------------------------------------

 -------------------------------------
 Particle #DSSYKIVIOFKYAU-UHFFFAOYSA-N
 -------------------------------------
 Symbolic Z-matrix:
 Charge =  0 Multiplicity = 1

 SCF Done:  E(RB-P86) =  -466.096639865     A.U. after   13 cycles
 SCF Done:  E(RB-P86) =  -466.107254769     A.U. after   11 cycles
 SCF Done:  E(RB-P86) =  -466.108311628     A.U. after   10 cycles
 SCF Done:  E(RB-P86) =  -466.108413624     A.U. after   10 cycles
 SCF Done:  E(RB-P86) =  -466.108466692     A.U. after    9 cycles
 SCF Done:  E(RB-P86) =  -466.108477049     A.U. after    8 cycles
 SCF Done:  E(RB-P86) =  -466.108480861     A.U. after    9 cycles
 SCF Done:  E(RB-P86) =  -466.108482191     A.U. after    8 cycles
 SCF Done:  E(RB-P86) =  -466.108482736     A.U. after    7 cycles
 Optimization completed.
    -- Stationary point found.
 Normal termination of Gaussian 16 at Mon Feb 22 21:01:55 2021.
 Gaussian 16:  ES64L-G16RevC.01  3-Jul-2019

 ---------------------------------------------------------
 # BP86/TZVP SCRF=COSMORS geom=CHECKPOINT guess=CHECKPOINT
 ---------------------------------------------------------

 -------------------------------------------
 COSMO-file for #DSSYKIVIOFKYAU-UHFFFAOYSA-N
 -------------------------------------------
 Structure from the checkpoint file:  "DSSYKIVIOFKYAU-UHFFFAOYSA-N.chk"
 Charge =  0 Multiplicity = 1

                         Standard orientation:
 ---------------------------------------------------------------------
 Center     Atomic      Atomic             Coordinates (Angstroms)
 Number     Number       Type             X           Y           Z
 ---------------------------------------------------------------------
      1          6           0       -0.508684   -1.901423    1.097238
      2          6           0       -0.287747   -0.506319    0.550075
      3          6           0       -0.070175    0.610237    1.633544
      4          6           0        0.579142    1.793817    0.850865
      5          6           0        0.590897    1.270371   -0.606603
      6          6           0       -0.880860    1.242137   -1.073078
      7          6           0       -1.444206    0.057191   -0.278364
      8          8           0       -2.601089   -0.343809   -0.293405
      9          6           0        0.918447   -0.250764   -0.426085
     10          6           0        2.293903   -0.518232    0.201745
     11          6           0        0.825282   -1.071818   -1.724580
     12          1           0       -1.403047   -1.929395    1.737800
     13          1           0       -0.657007   -2.627815    0.284001
     14          1           0        0.354157   -2.224310    1.698753
     15          1           0       -1.016132    0.882725    2.124142
     16          1           0        0.594923    0.215524    2.415665
     17          1           0        0.000150    2.724243    0.939572
     18          1           0        1.594691    2.007161    1.212001
     19          1           0        1.269030    1.808579   -1.282586
     20          1           0       -1.443297    2.161618   -0.849509
     21          1           0       -0.994098    1.045896   -2.150103
     22          1           0        2.435319   -1.597127    0.368882
     23          1           0        3.086780   -0.180272   -0.484385
     24          1           0        2.446395   -0.011185    1.163091
     25          1           0        1.568520   -0.715155   -2.454460
     26          1           0       -0.163309   -1.029239   -2.203968
     27          1           0        1.039652   -2.131956   -1.520199
 ---------------------------------------------------------------------

 SCF Done:  E(RB-P86) =  -466.078263098     A.U. after   10 cycles

 The electronic state is 1-A.
 Alpha  occ. eigenvalues --  -18.76742  -9.98359  -9.91386  -9.91254  -9.90272
 Alpha  occ. eigenvalues --   -9.89944  -9.89874  -9.89184  -9.88535  -9.88323
 Alpha  occ. eigenvalues --   -9.88182  -0.96114  -0.80830  -0.69508  -0.69088
 Alpha  occ. eigenvalues --   -0.66685  -0.61118  -0.60126  -0.57428  -0.52370
 Alpha  occ. eigenvalues --   -0.48307  -0.44956  -0.43587  -0.42996  -0.42127
 Alpha  occ. eigenvalues --   -0.39667  -0.37673  -0.36641  -0.35826  -0.35291
 Alpha  occ. eigenvalues --   -0.34834  -0.34253  -0.33389  -0.32620  -0.32054
 Alpha  occ. eigenvalues --   -0.30189  -0.29973  -0.29225  -0.28159  -0.27259
 Alpha  occ. eigenvalues --   -0.25951  -0.20844
 Alpha virt. eigenvalues --   -0.06486   0.01786   0.04400   0.04845   0.05309
 Alpha virt. eigenvalues --    0.06171   0.07367   0.08394   0.08862   0.09393
 Alpha virt. eigenvalues --    0.09663   0.10042   0.10830   0.11432   0.11691

 Mulliken charges:
               1
     1  C   -0.406369
     2  C    0.048829
     3  C   -0.326713
     4  C   -0.327682
     5  C   -0.040497
     6  C   -0.312122
     7  C    0.047455
     8  O   -0.320497
     9  C   -0.222117
    10  C   -0.412535
    11  C   -0.410867
    12  H    0.152285
    13  H    0.155163
    14  H    0.157967
    15  H    0.165828
    16  H    0.198498
    17  H    0.157802
    18  H    0.184052
    19  H    0.183322
    20  H    0.185028
    21  H    0.208866
    22  H    0.155578
    23  H    0.154532
    24  H    0.157029
    25  H    0.155404
    26  H    0.154653
    27  H    0.157110
 Sum of Mulliken charges =  -0.00000

 Dipole moment (field-independent basis, Debye):
    X=              4.3950    Y=              1.4053    Z=              0.2046  Tot=              4.6188
 Quadrupole moment (field-independent basis, Debye-Ang):
   XX=            -81.2564   YY=            -66.9044   ZZ=            -66.1104
   XY=             -3.3132   XZ=             -1.0977   YZ=             -0.6825

 Normal termination of Gaussian 16 at Mon Feb 22 21:02:14 2021.
