 Gaussian 16, Revision C.01,

 -------------------------------------------------------------
 #P BP86/TZVP EmpiricalDispersion=GD3 SCRF=(Solvent=Water) Opt
 -------------------------------------------------------------

 -------------------------------------
 Particle #DVSPHWCZXKPJEQ-UHFFFAOYSA-N
 -------------------------------------
 Symbolic Z-matrix:
 Charge =  1 Multiplicity = 1

 SCF Done:  E(RB-P86) =  -368.193180652     A.U. after   12 cycles
 SCF Done:  E(RB-P86) =  -368.200339513     A.U. after   10 cycles
 SCF Done:  E(RB-P86) =  -368.200934471     A.U. after    9 cycles
 SCF Done:  E(RB-P86) =  -368.200999265     A.U. after    9 cycles
 SCF Done:  E(RB-P86) =  -368.201014227     A.U. after    8 cycles
 SCF Done:  E(RB-P86) =  -368.201014975     A.U. after    7 cycles
 Optimization completed.
    -- Stationary point found.
 Normal termination of Gaussian 16 at Tue Feb 23 00:12:37 2021.
 Gaussian 16:  ES64L-G16RevC.01  3-Jul-2019

 ---------------------------------------------------------
 # BP86/TZVP SCRF=COSMORS geom=CHECKPOINT guess=CHECKPOINT
 ---------------------------------------------------------

 -------------------------------------------
 COSMO-file for #DVSPHWCZXKPJEQ-UHFFFAOYSA-N
 -------------------------------------------
 Structure from the checkpoint file:  "DVSPHWCZXKPJEQ-UHFFFAOYSA-N.chk"
 Charge =  1 Multiplicity = 1

                         Standard orientation:
 ---------------------------------------------------------------------
 Center     Atomic      Atomic             Coordinates (Angstroms)
 Number     Number       Type             X           Y           Z
 ---------------------------------------------------------------------
      1          6           0       -3.546960   -0.156391   -0.000000
      2          8           0       -2.316275    0.582140   -0.000000
      3          6           0       -1.180991   -0.280054    0.000000
      4          6           0        0.015049    0.670950   -0.000001
      5          7           0        1.383663    0.002746   -0.000000
      6          6           0        1.572058   -0.849740    1.234595
      7          6           0        2.427189    1.099190   -0.000001
      8          6           0        1.572059   -0.849743   -1.234593
      9          1           0       -3.632533   -0.792765    0.899749
     10          1           0       -4.357860    0.582474   -0.000001
     11          1           0       -3.632532   -0.792766   -0.899748
     12          1           0       -1.184812   -0.928475   -0.896027
     13          1           0       -1.184812   -0.928473    0.896029
     14          1           0       -0.022994    1.309677   -0.891774
     15          1           0       -0.022994    1.309680    0.891770
     16          1           0        0.878727   -1.695216    1.200511
     17          1           0        2.603156   -1.218882    1.243457
     18          1           0        1.380397   -0.234527    2.120412
     19          1           0        2.294380    1.710531   -0.899029
     20          1           0        3.419351    0.635236   -0.000001
     21          1           0        2.294380    1.710532    0.899026
     22          1           0        1.380399   -0.234532   -2.120412
     23          1           0        2.603156   -1.218886   -1.243453
     24          1           0        0.878728   -1.695219   -1.200508
 ---------------------------------------------------------------------

 SCF Done:  E(RB-P86) =  -368.189322683     A.U. after   10 cycles

 The electronic state is 1-A.
 Alpha  occ. eigenvalues --  -18.78879 -14.14079  -9.95751  -9.95691  -9.94651
 Alpha  occ. eigenvalues --   -9.94650  -9.94643  -9.93785  -0.96071  -0.93956
 Alpha  occ. eigenvalues --   -0.71940  -0.68344  -0.68304  -0.63872  -0.58680
 Alpha  occ. eigenvalues --   -0.55395  -0.48806  -0.47999  -0.46927  -0.44306
 Alpha  occ. eigenvalues --   -0.43427  -0.41084  -0.39581  -0.38858  -0.37264
 Alpha  occ. eigenvalues --   -0.36187  -0.36083  -0.36045  -0.35945  -0.33441
 Alpha  occ. eigenvalues --   -0.33124  -0.29599  -0.22919
 Alpha virt. eigenvalues --   -0.00447   0.01713   0.04268   0.04484   0.05093
 Alpha virt. eigenvalues --    0.05284   0.05861   0.06082   0.06809   0.08053
 Alpha virt. eigenvalues --    0.09116   0.09629   0.10306   0.11003   0.11182

 Mulliken charges:
               1
     1  C   -0.252482
     2  O   -0.290486
     3  C   -0.196373
     4  C   -0.136050
     5  N   -0.202465
     6  C   -0.305762
     7  C   -0.273697
     8  C   -0.305993
     9  H    0.137695
    10  H    0.157721
    11  H    0.137689
    12  H    0.163572
    13  H    0.163516
    14  H    0.201924
    15  H    0.201875
    16  H    0.204972
    17  H    0.199038
    18  H    0.200275
    19  H    0.195911
    20  H    0.198830
    21  H    0.195848
    22  H    0.200356
    23  H    0.199080
    24  H    0.205005
 Sum of Mulliken charges =   1.00000

 Dipole moment (field-independent basis, Debye):
    X=              6.2347    Y=             -1.8280    Z=             -0.0001  Tot=              6.4971
 Quadrupole moment (field-independent basis, Debye-Ang):
   XX=            -29.1881   YY=            -45.6040   ZZ=            -44.3034
   XY=              4.1004   XZ=             -0.0007   YZ=             -0.0001

 Normal termination of Gaussian 16 at Tue Feb 23 00:12:51 2021.
