 Gaussian 16, Revision C.01,

 -------------------------------------------------------------
 #P BP86/TZVP EmpiricalDispersion=GD3 SCRF=(Solvent=Water) Opt
 -------------------------------------------------------------

 -------------------------------------
 Particle #FBEVECUEMUUFKM-UHFFFAOYSA-M
 -------------------------------------
 Symbolic Z-matrix:
 Charge =  0 Multiplicity = 1

 SCF Done:  E(RB-P86) =  -989.358893192     A.U. after   12 cycles
 SCF Done:  E(RB-P86) =  -989.371437434     A.U. after   10 cycles
 SCF Done:  E(RB-P86) =  -989.372654651     A.U. after   10 cycles
 SCF Done:  E(RB-P86) =  -989.373522871     A.U. after   11 cycles
 SCF Done:  E(RB-P86) =  -989.373609299     A.U. after   10 cycles
 SCF Done:  E(RB-P86) =  -989.373834979     A.U. after   10 cycles
 SCF Done:  E(RB-P86) =  -989.374531881     A.U. after    9 cycles
 SCF Done:  E(RB-P86) =  -989.374665532     A.U. after    9 cycles
 SCF Done:  E(RB-P86) =  -989.374740145     A.U. after    9 cycles
 SCF Done:  E(RB-P86) =  -989.374759074     A.U. after    8 cycles
 SCF Done:  E(RB-P86) =  -989.374763046     A.U. after    7 cycles
 SCF Done:  E(RB-P86) =  -989.374762048     A.U. after    7 cycles
 SCF Done:  E(RB-P86) =  -989.374759803     A.U. after    7 cycles
 SCF Done:  E(RB-P86) =  -989.374760706     A.U. after    7 cycles
 SCF Done:  E(RB-P86) =  -989.374762750     A.U. after    8 cycles
 Optimization completed.
    -- Stationary point found.
 Normal termination of Gaussian 16 at Sat Aug 21 09:46:49 2021.
 Gaussian 16:  ES64L-G16RevC.01  3-Jul-2019

 ---------------------------------------------------------
 # BP86/TZVP SCRF=COSMORS geom=CHECKPOINT guess=CHECKPOINT
 ---------------------------------------------------------

 -------------------------------------------
 COSMO-file for #FBEVECUEMUUFKM-UHFFFAOYSA-M
 -------------------------------------------
 Structure from the checkpoint file:  "FBEVECUEMUUFKM-UHFFFAOYSA-M.chk"
 Charge =  0 Multiplicity = 1

                         Standard orientation:
 ---------------------------------------------------------------------
 Center     Atomic      Atomic             Coordinates (Angstroms)
 Number     Number       Type             X           Y           Z
 ---------------------------------------------------------------------
      1          6           0       -3.867488    1.258479   -0.426313
      2          6           0       -2.372579    1.181168   -0.767318
      3          6           0       -1.612165    0.526234    0.383775
      4          7           0       -0.156297    0.190554    0.095655
      5          6           0        0.568242   -0.243709    1.384606
      6          6           0        0.297519   -1.624947    1.979784
      7          6           0       -1.059798   -1.865170    2.652781
      8          6           0        0.596153    1.424217   -0.434227
      9          6           0        0.635863    2.637914    0.489100
     10          6           0        1.345237    3.796014   -0.229733
     11          6           0       -0.008699   -0.875949   -1.002791
     12          6           0       -1.023866   -2.017077   -1.022555
     13          6           0       -0.632873   -3.015081   -2.123468
     14         17           0        3.639480   -0.651043   -0.444273
     15          1           0       -4.034321    1.828285    0.500741
     16          1           0       -4.421870    1.757272   -1.233483
     17          1           0       -4.296348    0.253897   -0.289512
     18          1           0       -2.234874    0.609231   -1.698102
     19          1           0       -1.986216    2.194248   -0.954253
     20          1           0       -1.611518    1.177397    1.267620
     21          1           0       -2.094624   -0.411689    0.675922
     22          1           0        0.337597    0.532123    2.125970
     23          1           0        1.634096   -0.186763    1.115001
     24          1           0        1.084010   -1.718508    2.748160
     25          1           0        0.528398   -2.413150    1.247638
     26          1           0       -1.880385   -1.990216    1.931898
     27          1           0       -1.323842   -1.029964    3.319531
     28          1           0       -1.023478   -2.782465    3.258200
     29          1           0        1.613210    1.060006   -0.651920
     30          1           0        0.114178    1.687515   -1.384575
     31          1           0       -0.381241    2.951593    0.771512
     32          1           0        1.175026    2.403295    1.418154
     33          1           0        2.372406    3.517343   -0.510817
     34          1           0        1.400038    4.678513    0.423029
     35          1           0        0.808105    4.084631   -1.146334
     36          1           0        1.025500   -1.240675   -0.900239
     37          1           0       -0.067083   -0.333485   -1.956162
     38          1           0       -2.035022   -1.632592   -1.224254
     39          1           0       -1.066851   -2.539366   -0.059020
     40          1           0       -0.598813   -2.527461   -3.109980
     41          1           0        0.357366   -3.453628   -1.927094
     42          1           0       -1.363804   -3.834086   -2.176410
 ---------------------------------------------------------------------

 SCF Done:  E(RB-P86) =  -989.329031620     A.U. after   11 cycles

 The electronic state is 1-A.
 Alpha  occ. eigenvalues -- -100.64560 -14.11932  -9.94369  -9.94228  -9.94121
 Alpha  occ. eigenvalues --   -9.94092  -9.90593  -9.90536  -9.90420  -9.90403
 Alpha  occ. eigenvalues --   -9.88964  -9.88957  -9.88946  -9.88826  -9.08431
 Alpha  occ. eigenvalues --   -6.90248  -6.90246  -6.90240  -0.91881  -0.73325
 Alpha  occ. eigenvalues --   -0.73169  -0.72511  -0.70646  -0.64888  -0.64263
 Alpha  occ. eigenvalues --   -0.63417  -0.63176  -0.58608  -0.56281  -0.53973
 Alpha  occ. eigenvalues --   -0.53398  -0.51854  -0.48140  -0.46587  -0.45130
 Alpha  occ. eigenvalues --   -0.43070  -0.40922  -0.40744  -0.40106  -0.39368
 Alpha  occ. eigenvalues --   -0.38175  -0.37227  -0.36781  -0.36225  -0.34787
 Alpha  occ. eigenvalues --   -0.34570  -0.34218  -0.33721  -0.33237  -0.32396
 Alpha  occ. eigenvalues --   -0.32103  -0.31270  -0.31076  -0.30786  -0.30151
 Alpha  occ. eigenvalues --   -0.29910  -0.29659  -0.29587  -0.29043  -0.21493
 Alpha  occ. eigenvalues --   -0.21466  -0.21153
 Alpha virt. eigenvalues --    0.00878   0.02385   0.02722   0.03047   0.03634
 Alpha virt. eigenvalues --    0.05009   0.05386   0.05773   0.06555   0.06896
 Alpha virt. eigenvalues --    0.07091   0.07704   0.08925   0.09046   0.09103

 Mulliken charges:
               1
     1  C   -0.448127
     2  C   -0.224216
     3  C   -0.318314
     4  N   -0.120749
     5  C   -0.205168
     6  C   -0.306393
     7  C   -0.417316
     8  C   -0.263458
     9  C   -0.211097
    10  C   -0.448718
    11  C   -0.260065
    12  C   -0.225178
    13  C   -0.449315
    14  Cl  -0.883038
    15  H    0.145501
    16  H    0.159161
    17  H    0.147888
    18  H    0.177854
    19  H    0.175824
    20  H    0.219644
    21  H    0.221596
    22  H    0.210812
    23  H    0.167320
    24  H    0.172650
    25  H    0.175070
    26  H    0.143301
    27  H    0.149650
    28  H    0.158810
    29  H    0.167977
    30  H    0.218467
    31  H    0.164821
    32  H    0.174700
    33  H    0.142578
    34  H    0.159083
    35  H    0.145847
    36  H    0.171908
    37  H    0.212631
    38  H    0.173433
    39  H    0.174437
    40  H    0.145563
    41  H    0.145961
    42  H    0.158663
 Sum of Mulliken charges =  -0.00000

 Dipole moment (field-independent basis, Debye):
    X=            -17.2772    Y=              3.7028    Z=              2.4594  Tot=             17.8398
 Quadrupole moment (field-independent basis, Debye-Ang):
   XX=           -152.6250   YY=            -92.4038   ZZ=            -94.3601
   XY=             10.4078   XZ=              9.0975   YZ=             -1.3803

 Normal termination of Gaussian 16 at Sat Aug 21 09:47:46 2021.
