 Gaussian 16, Revision C.01,

 -------------------------------------------------------------
 #P BP86/TZVP EmpiricalDispersion=GD3 SCRF=(Solvent=Water) Opt
 -------------------------------------------------------------

 -------------------------------------
 Particle #FBPFZTCFMRRESA-JGWLITMVSA-N
 -------------------------------------
 Symbolic Z-matrix:
 Charge =  0 Multiplicity = 1

 SCF Done:  E(RB-P86) =  -688.668839404     A.U. after   12 cycles
 SCF Done:  E(RB-P86) =  -688.678745306     A.U. after   11 cycles
 SCF Done:  E(RB-P86) =  -688.680935839     A.U. after   11 cycles
 SCF Done:  E(RB-P86) =  -688.682380992     A.U. after   11 cycles
 SCF Done:  E(RB-P86) =  -688.683245756     A.U. after   10 cycles
 SCF Done:  E(RB-P86) =  -688.684677828     A.U. after   12 cycles
 SCF Done:  E(RB-P86) =  -688.685205039     A.U. after   10 cycles
 SCF Done:  E(RB-P86) =  -688.685385809     A.U. after   11 cycles
 SCF Done:  E(RB-P86) =  -688.685399390     A.U. after   11 cycles
 SCF Done:  E(RB-P86) =  -688.685239667     A.U. after    9 cycles
 SCF Done:  E(RB-P86) =  -688.689651249     A.U. after    8 cycles
 SCF Done:  E(RB-P86) =  -688.689651409     A.U. after    9 cycles
 SCF Done:  E(RB-P86) =  -688.689651106     A.U. after    8 cycles
 SCF Done:  E(RB-P86) =  -688.689650731     A.U. after    7 cycles
 SCF Done:  E(RB-P86) =  -688.689651424     A.U. after    9 cycles
 SCF Done:  E(RB-P86) =  -688.689650555     A.U. after    9 cycles
 SCF Done:  E(RB-P86) =  -688.689650519     A.U. after    7 cycles
 SCF Done:  E(RB-P86) =  -688.689651405     A.U. after    9 cycles
 SCF Done:  E(RB-P86) =  -688.689650517     A.U. after    9 cycles
 Optimization completed.
    -- Stationary point found.
 Normal termination of Gaussian 16 at Mon Feb 22 21:15:03 2021.
 Gaussian 16:  ES64L-G16RevC.01  3-Jul-2019

 ---------------------------------------------------------
 # BP86/TZVP SCRF=COSMORS geom=CHECKPOINT guess=CHECKPOINT
 ---------------------------------------------------------

 -------------------------------------------
 COSMO-file for #FBPFZTCFMRRESA-JGWLITMVSA-N
 -------------------------------------------
 Structure from the checkpoint file:  "FBPFZTCFMRRESA-JGWLITMVSA-N.chk"
 Charge =  0 Multiplicity = 1

                         Standard orientation:
 ---------------------------------------------------------------------
 Center     Atomic      Atomic             Coordinates (Angstroms)
 Number     Number       Type             X           Y           Z
 ---------------------------------------------------------------------
      1          8           0        3.582528   -1.029770   -0.408333
      2          6           0        2.140378   -1.022057   -0.330464
      3          6           0        1.744449    0.407754    0.054285
      4          8           0        2.483612    0.810947    1.218605
      5          6           0        0.253605    0.541957    0.389326
      6          8           0       -0.068460    1.913821    0.731655
      7          6           0       -0.691892    0.066413   -0.734628
      8          8           0       -0.634882    1.004474   -1.837496
      9          6           0       -2.161804   -0.032824   -0.289819
     10          8           0       -2.696956    1.197884    0.224238
     11          6           0       -2.382143   -1.140737    0.748458
     12          8           0       -1.895863   -2.383689    0.207997
     13          1           0        3.889957   -1.941672   -0.266319
     14          1           0        1.703947   -1.305828   -1.303449
     15          1           0        1.782096   -1.724965    0.442365
     16          1           0        1.987131    1.083836   -0.792263
     17          1           0        3.378792    0.436285    1.079348
     18          1           0        0.068964   -0.039855    1.305472
     19          1           0       -0.027529    2.405345   -0.116032
     20          1           0       -0.404754   -0.944660   -1.064389
     21          1           0        0.123440    0.768514   -2.400651
     22          1           0       -2.743453   -0.280677   -1.193762
     23          1           0       -1.948085    1.656067    0.671735
     24          1           0       -1.861159   -0.877534    1.688616
     25          1           0       -3.463888   -1.187544    0.965245
     26          1           0       -2.060839   -3.079676    0.867816
 ---------------------------------------------------------------------

 SCF Done:  E(RB-P86) =  -688.673872142     A.U. after   11 cycles

 The electronic state is 1-A.
 Alpha  occ. eigenvalues --  -18.78824 -18.78354 -18.78329 -18.77653 -18.77287
 Alpha  occ. eigenvalues --  -18.76821  -9.95947  -9.95852  -9.95499  -9.95288
 Alpha  occ. eigenvalues --   -9.94946  -9.94327  -0.96929  -0.95562  -0.94169
 Alpha  occ. eigenvalues --   -0.93748  -0.92966  -0.92610  -0.72282  -0.68820
 Alpha  occ. eigenvalues --   -0.63657  -0.60157  -0.55445  -0.53042  -0.49078
 Alpha  occ. eigenvalues --   -0.48488  -0.48068  -0.46059  -0.44328  -0.43826
 Alpha  occ. eigenvalues --   -0.43096  -0.40699  -0.40320  -0.38538  -0.38246
 Alpha  occ. eigenvalues --   -0.35782  -0.35307  -0.33793  -0.32360  -0.31692
 Alpha  occ. eigenvalues --   -0.31199  -0.30061  -0.29119  -0.26443  -0.24997
 Alpha  occ. eigenvalues --   -0.24565  -0.23849  -0.23818  -0.22853
 Alpha virt. eigenvalues --    0.00065   0.01236   0.01778   0.03553   0.04782
 Alpha virt. eigenvalues --    0.05234   0.06466   0.06990   0.07867   0.08848
 Alpha virt. eigenvalues --    0.09887   0.11353   0.11826   0.12503   0.13349

 Mulliken charges:
               1
     1  O   -0.437871
     2  C   -0.230473
     3  C   -0.037300
     4  O   -0.402127
     5  C   -0.040684
     6  O   -0.402063
     7  C   -0.269004
     8  O   -0.391634
     9  C    0.041812
    10  O   -0.412121
    11  C   -0.216557
    12  O   -0.426615
    13  H    0.329488
    14  H    0.161231
    15  H    0.165992
    16  H    0.157657
    17  H    0.298319
    18  H    0.178953
    19  H    0.315528
    20  H    0.212772
    21  H    0.326943
    22  H    0.166841
    23  H    0.291183
    24  H    0.149022
    25  H    0.152444
    26  H    0.318263
 Sum of Mulliken charges =  -0.00000

 Dipole moment (field-independent basis, Debye):
    X=              3.1886    Y=             -6.4075    Z=             -1.1344  Tot=              7.2464
 Quadrupole moment (field-independent basis, Debye-Ang):
   XX=            -78.4709   YY=            -67.7579   ZZ=            -72.9172
   XY=             -0.3811   XZ=             -8.5013   YZ=             -8.6902

 Normal termination of Gaussian 16 at Mon Feb 22 21:15:22 2021.
