 Gaussian 16, Revision C.01,

 -------------------------------------------------------------
 #P BP86/TZVP EmpiricalDispersion=GD3 SCRF=(Solvent=Water) Opt
 -------------------------------------------------------------

 -------------------------------------
 Particle #GHMLBKRAJCXXBS-UHFFFAOYSA-N
 -------------------------------------
 Symbolic Z-matrix:
 Charge =  0 Multiplicity = 1

 SCF Done:  E(RB-P86) =  -382.832891509     A.U. after   12 cycles
 SCF Done:  E(RB-P86) =  -382.848628571     A.U. after   12 cycles
 SCF Done:  E(RB-P86) =  -382.848864420     A.U. after   10 cycles
 SCF Done:  E(RB-P86) =  -382.848872345     A.U. after    8 cycles
 SCF Done:  E(RB-P86) =  -382.848873574     A.U. after    7 cycles
 Optimization completed.
    -- Stationary point found.
 Normal termination of Gaussian 16 at Mon Feb 22 21:04:00 2021.
 Gaussian 16:  ES64L-G16RevC.01  3-Jul-2019

 ---------------------------------------------------------
 # BP86/TZVP SCRF=COSMORS geom=CHECKPOINT guess=CHECKPOINT
 ---------------------------------------------------------

 -------------------------------------------
 COSMO-file for #GHMLBKRAJCXXBS-UHFFFAOYSA-N
 -------------------------------------------
 Structure from the checkpoint file:  "GHMLBKRAJCXXBS-UHFFFAOYSA-N.chk"
 Charge =  0 Multiplicity = 1

                         Standard orientation:
 ---------------------------------------------------------------------
 Center     Atomic      Atomic             Coordinates (Angstroms)
 Number     Number       Type             X           Y           Z
 ---------------------------------------------------------------------
      1          8           0        2.431966   -0.928704   -0.000320
      2          6           0        1.211726   -0.292641    0.000060
      3          6           0        1.220052    1.110499    0.000107
      4          6           0        0.000000    1.793859   -0.000000
      5          6           0       -1.220052    1.110499   -0.000107
      6          6           0       -1.211726   -0.292641   -0.000059
      7          8           0       -2.431966   -0.928704    0.000320
      8          6           0        0.000000   -1.000709    0.000000
      9          1           0        2.298193   -1.894823    0.001929
     10          1           0        2.172331    1.642261    0.000261
     11          1           0       -0.000000    2.885996   -0.000000
     12          1           0       -2.172331    1.642261   -0.000261
     13          1           0       -2.298193   -1.894823   -0.001931
     14          1           0       -0.000000   -2.094803    0.000000
 ---------------------------------------------------------------------

 SCF Done:  E(RB-P86) =  -382.847223610     A.U. after   10 cycles

 The electronic state is 1-A.
 Alpha  occ. eigenvalues --  -18.80411 -18.80411  -9.96787  -9.96786  -9.90788
 Alpha  occ. eigenvalues --   -9.90388  -9.89624  -9.89623  -0.97878  -0.97680
 Alpha  occ. eigenvalues --   -0.77849  -0.68015  -0.67709  -0.58311  -0.55079
 Alpha  occ. eigenvalues --   -0.50038  -0.49030  -0.44513  -0.41472  -0.38647
 Alpha  occ. eigenvalues --   -0.38149  -0.36552  -0.34867  -0.34703  -0.31671
 Alpha  occ. eigenvalues --   -0.31534  -0.28498  -0.22042  -0.19999
 Alpha virt. eigenvalues --   -0.04299  -0.02902   0.03136   0.03294   0.04573
 Alpha virt. eigenvalues --    0.07904   0.08975   0.09960   0.11283   0.12124
 Alpha virt. eigenvalues --    0.15291   0.16542   0.17904   0.18247   0.19869

 Mulliken charges:
               1
     1  O   -0.326237
     2  C    0.136927
     3  C   -0.264801
     4  C   -0.122647
     5  C   -0.264811
     6  C    0.136940
     7  O   -0.326230
     8  C   -0.264716
     9  H    0.329822
    10  H    0.156573
    11  H    0.146566
    12  H    0.156570
    13  H    0.329828
    14  H    0.176218
 Sum of Mulliken charges =  -0.00000

 Dipole moment (field-independent basis, Debye):
    X=             -0.0001    Y=             -3.5342    Z=             -0.0004  Tot=              3.5342
 Quadrupole moment (field-independent basis, Debye-Ang):
   XX=            -51.9863   YY=            -30.9506   ZZ=            -51.0167
   XY=              0.0002   XZ=              0.0225   YZ=              0.0005

 Normal termination of Gaussian 16 at Mon Feb 22 21:04:07 2021.
