 Gaussian 16, Revision C.01,

 -------------------------------------------------------------
 #P BP86/TZVP EmpiricalDispersion=GD3 SCRF=(Solvent=Water) Opt
 -------------------------------------------------------------

 -------------------------------------
 Particle #GHVNFZFCNZKVNT-UHFFFAOYSA-N
 -------------------------------------
 Symbolic Z-matrix:
 Charge =  0 Multiplicity = 1

 SCF Done:  E(RB-P86) =  -543.794079190     A.U. after   13 cycles
 SCF Done:  E(RB-P86) =  -543.805008061     A.U. after   10 cycles
 SCF Done:  E(RB-P86) =  -543.806085748     A.U. after   10 cycles
 SCF Done:  E(RB-P86) =  -543.806105274     A.U. after   10 cycles
 SCF Done:  E(RB-P86) =  -543.806190788     A.U. after   10 cycles
 SCF Done:  E(RB-P86) =  -543.806234944     A.U. after    9 cycles
 SCF Done:  E(RB-P86) =  -543.806237669     A.U. after    8 cycles
 SCF Done:  E(RB-P86) =  -543.806241181     A.U. after    8 cycles
 SCF Done:  E(RB-P86) =  -543.806244554     A.U. after    9 cycles
 SCF Done:  E(RB-P86) =  -543.806248554     A.U. after    9 cycles
 SCF Done:  E(RB-P86) =  -543.806252270     A.U. after    9 cycles
 SCF Done:  E(RB-P86) =  -543.806258958     A.U. after    9 cycles
 SCF Done:  E(RB-P86) =  -543.806260396     A.U. after    8 cycles
 SCF Done:  E(RB-P86) =  -543.806264854     A.U. after   10 cycles
 SCF Done:  E(RB-P86) =  -543.806265085     A.U. after    9 cycles
 SCF Done:  E(RB-P86) =  -543.806265365     A.U. after    8 cycles
 SCF Done:  E(RB-P86) =  -543.806267385     A.U. after    9 cycles
 SCF Done:  E(RB-P86) =  -543.806267187     A.U. after    9 cycles
 SCF Done:  E(RB-P86) =  -543.806267406     A.U. after    7 cycles
 Optimization completed.
    -- Stationary point found.
 Normal termination of Gaussian 16 at Mon Feb 22 21:11:49 2021.
 Gaussian 16:  ES64L-G16RevC.01  3-Jul-2019

 ---------------------------------------------------------
 # BP86/TZVP SCRF=COSMORS geom=CHECKPOINT guess=CHECKPOINT
 ---------------------------------------------------------

 -------------------------------------------
 COSMO-file for #GHVNFZFCNZKVNT-UHFFFAOYSA-N
 -------------------------------------------
 Structure from the checkpoint file:  "GHVNFZFCNZKVNT-UHFFFAOYSA-N.chk"
 Charge =  0 Multiplicity = 1

                         Standard orientation:
 ---------------------------------------------------------------------
 Center     Atomic      Atomic             Coordinates (Angstroms)
 Number     Number       Type             X           Y           Z
 ---------------------------------------------------------------------
      1          6           0       -6.696138   -0.124773   -0.109913
      2          6           0       -5.373337    0.502143    0.347916
      3          6           0       -4.140508   -0.244799   -0.179206
      4          6           0       -2.810137    0.372119    0.271534
      5          6           0       -1.579236   -0.376536   -0.256092
      6          6           0       -0.249415    0.241278    0.195726
      7          6           0        0.978995   -0.510325   -0.333381
      8          6           0        2.303366    0.113257    0.123755
      9          6           0        3.528746   -0.659208   -0.416949
     10          6           0        4.813762   -0.044606    0.080327
     11          8           0        5.439190   -0.404580    1.067292
     12          8           0        5.195221    1.023490   -0.679222
     13          1           0       -7.564843    0.427515    0.280565
     14          1           0       -6.769642   -0.132477   -1.209587
     15          1           0       -6.778740   -1.168250    0.235164
     16          1           0       -5.336414    0.526650    1.451604
     17          1           0       -5.327065    1.554882    0.016709
     18          1           0       -4.175593   -0.270049   -1.284047
     19          1           0       -4.184991   -1.298816    0.151889
     20          1           0       -2.775561    0.397272    1.376216
     21          1           0       -2.765812    1.425779   -0.060119
     22          1           0       -1.613123   -0.401424   -1.360682
     23          1           0       -1.623130   -1.430057    0.075663
     24          1           0       -0.204388    1.294357   -0.136682
     25          1           0       -0.214771    0.265679    1.300128
     26          1           0        0.936550   -1.562974   -0.000732
     27          1           0        0.948283   -0.532767   -1.437532
     28          1           0        2.343914    0.130108    1.226116
     29          1           0        2.356755    1.161479   -0.214253
     30          1           0        3.499120   -1.701754   -0.070713
     31          1           0        3.515524   -0.651508   -1.517273
     32          1           0        6.002057    1.403763   -0.269298
 ---------------------------------------------------------------------

 SCF Done:  E(RB-P86) =  -543.782980822     A.U. after   10 cycles

 The electronic state is 1-A.
 Alpha  occ. eigenvalues --  -18.81922 -18.76837 -10.03131  -9.90939  -9.90110
 Alpha  occ. eigenvalues --   -9.89036  -9.88719  -9.88704  -9.88573  -9.88508
 Alpha  occ. eigenvalues --   -9.88477  -9.88057  -1.02012  -0.93779  -0.74114
 Alpha  occ. eigenvalues --   -0.72572  -0.69987  -0.66460  -0.62211  -0.57772
 Alpha  occ. eigenvalues --   -0.54528  -0.52650  -0.51423  -0.51112  -0.45174
 Alpha  occ. eigenvalues --   -0.43289  -0.43186  -0.41712  -0.41244  -0.39299
 Alpha  occ. eigenvalues --   -0.38285  -0.37340  -0.36290  -0.35593  -0.35475
 Alpha  occ. eigenvalues --   -0.33308  -0.33096  -0.31381  -0.30778  -0.30573
 Alpha  occ. eigenvalues --   -0.29305  -0.29065  -0.28506  -0.28232  -0.27754
 Alpha  occ. eigenvalues --   -0.27489  -0.26663  -0.24349
 Alpha virt. eigenvalues --   -0.04784   0.02171   0.02669   0.03563   0.05088
 Alpha virt. eigenvalues --    0.05105   0.05347   0.06482   0.06979   0.07591
 Alpha virt. eigenvalues --    0.08506   0.09874   0.10055   0.10817   0.11322

 Mulliken charges:
               1
     1  C   -0.418568
     2  C   -0.228041
     3  C   -0.260153
     4  C   -0.243862
     5  C   -0.255272
     6  C   -0.250681
     7  C   -0.251645
     8  C   -0.280191
     9  C   -0.262786
    10  C    0.212226
    11  O   -0.365760
    12  O   -0.282025
    13  H    0.144522
    14  H    0.131641
    15  H    0.131723
    16  H    0.126674
    17  H    0.126792
    18  H    0.122875
    19  H    0.122977
    20  H    0.124219
    21  H    0.124361
    22  H    0.126843
    23  H    0.126988
    24  H    0.129447
    25  H    0.129154
    26  H    0.134190
    27  H    0.133093
    28  H    0.142688
    29  H    0.149163
    30  H    0.165286
    31  H    0.164113
    32  H    0.330010
 Sum of Mulliken charges =  -0.00000

 Dipole moment (field-independent basis, Debye):
    X=             -1.4713    Y=              1.0129    Z=             -1.7015  Tot=              2.4670
 Quadrupole moment (field-independent basis, Debye-Ang):
   XX=            -88.2246   YY=            -76.3568   ZZ=            -81.0452
   XY=              8.1748   XZ=            -10.1261   YZ=              1.5719

 Normal termination of Gaussian 16 at Mon Feb 22 21:12:08 2021.
