 Gaussian 16, Revision C.01,

 -------------------------------------------------------------
 #P BP86/TZVP EmpiricalDispersion=GD3 SCRF=(Solvent=Water) Opt
 -------------------------------------------------------------

 -------------------------------------
 Particle #GJSGYPDDPQRWPK-UHFFFAOYSA-N
 -------------------------------------
 Symbolic Z-matrix:
 Charge =  1 Multiplicity = 1

 SCF Done:  E(RB-P86) =  -843.522134270     A.U. after   11 cycles
 SCF Done:  E(RB-P86) =  -843.548381846     A.U. after    9 cycles
 SCF Done:  E(RB-P86) =  -843.556457018     A.U. after    9 cycles
 SCF Done:  E(RB-P86) =  -843.557023287     A.U. after    9 cycles
 SCF Done:  E(RB-P86) =  -843.557036148     A.U. after    9 cycles
 SCF Done:  E(RB-P86) =  -843.557147802     A.U. after    9 cycles
 SCF Done:  E(RB-P86) =  -843.557117018     A.U. after    7 cycles
 SCF Done:  E(RB-P86) =  -843.557109872     A.U. after    7 cycles
 SCF Done:  E(RB-P86) =  -843.557150260     A.U. after    8 cycles
 SCF Done:  E(RB-P86) =  -843.557144966     A.U. after    7 cycles
 SCF Done:  E(RB-P86) =  -843.557137209     A.U. after    8 cycles
 SCF Done:  E(RB-P86) =  -843.557083114     A.U. after    7 cycles
 SCF Done:  E(RB-P86) =  -843.556800505     A.U. after    9 cycles
 SCF Done:  E(RB-P86) =  -843.557179061     A.U. after   10 cycles
 SCF Done:  E(RB-P86) =  -843.557087584     A.U. after    8 cycles
 SCF Done:  E(RB-P86) =  -843.555330861     A.U. after    9 cycles
 SCF Done:  E(RB-P86) =  -843.556648499     A.U. after   10 cycles
 SCF Done:  E(RB-P86) =  -843.555017048     A.U. after   10 cycles
 SCF Done:  E(RB-P86) =  -843.557123140     A.U. after    6 cycles
 Optimization completed.
    -- Stationary point found.

  BP86/TZVP EmpiricalDispersion=GD3 SCRF=(Solvent=Water) Opt\\Particle
 #GJSGYPDDPQRWPK-UHFFFAOYSA-N\\1,1\C,-0.828551402,7.0700791964,-2.50766
 08803\C,-0.962691598,6.2648009299,-1.2099342203\C,-0.011844571,5.06119
 39532,-1.16110792\C,-0.1421167771,4.2599358155,0.1452529131\C,0.820410
 6969,3.0795696973,0.1288485673\N,0.8076927976,2.1852782716,1.371731159
 8\C,1.8388577516,1.0814542745,1.121152869\C,1.9977667738,0.0502622614,
 2.2308686408\C,3.0674739289,-0.9825812344,1.8377104221\C,3.2741747377,
 -2.0542110491,2.9166926552\C,4.3371027094,-3.0876623336,2.5258986958\C

 Normal termination of Gaussian 16 at Tue Feb 23 01:08:39 2021.
 Gaussian 16:  ES64L-G16RevC.01  3-Jul-2019

 ---------------------------------------------------------
 # BP86/TZVP SCRF=COSMORS geom=CHECKPOINT guess=CHECKPOINT
 ---------------------------------------------------------

 -------------------------------------------
 COSMO-file for #GJSGYPDDPQRWPK-UHFFFAOYSA-N
 -------------------------------------------
 Structure from the checkpoint file:  "GJSGYPDDPQRWPK-UHFFFAOYSA-N.chk"
 Charge =  1 Multiplicity = 1

                         Standard orientation:
 ---------------------------------------------------------------------
 Center     Atomic      Atomic             Coordinates (Angstroms)
 Number     Number       Type             X           Y           Z
 ---------------------------------------------------------------------
      1          6           0       -0.349549   -6.217295   -1.671191
      2          6           0       -0.275401   -5.094628   -0.629710
      3          6           0       -0.207355   -3.700721   -1.268112
      4          6           0       -0.141724   -2.575752   -0.221355
      5          6           0       -0.070214   -1.222558   -0.916872
      6          7           0       -0.002972    0.001462    0.000695
      7          6           0        0.066919    1.226025   -0.915862
      8          6           0        0.153132    2.578208   -0.219982
      9          6           0        0.209311    3.703920   -1.266513
     10          6           0        0.299725    5.096312   -0.627461
     11          6           0        0.359985    6.220429   -1.668273
     12          6           0       -1.228661    0.069906    0.917316
     13          6           0       -2.580699    0.148321    0.220289
     14          6           0       -3.707290    0.206976    1.265812
     15          6           0       -5.099904    0.285295    0.625672
     16          6           0       -6.224490    0.349328    1.665723
     17          6           0        1.220528   -0.067495    0.918591
     18          6           0        2.572943   -0.146903    0.222601
     19          6           0        3.698502   -0.209670    1.268859
     20          6           0        5.091443   -0.290472    0.629755
     21          6           0        6.214928   -0.359461    1.670709
     22          1           0       -1.241924   -6.107682   -2.308170
     23          1           0        0.533706   -6.204897   -2.329774
     24          1           0       -0.398172   -7.207138   -1.192671
     25          1           0       -1.154506   -5.144966    0.036082
     26          1           0        0.609121   -5.241226    0.014316
     27          1           0       -1.090268   -3.549181   -1.913669
     28          1           0        0.676678   -3.641550   -1.927159
     29          1           0        0.740410   -2.731990    0.418958
     30          1           0       -1.031185   -2.637314    0.424670
     31          1           0       -0.947380   -1.069461   -1.558590
     32          1           0        0.816581   -1.165265   -1.560944
     33          1           0       -0.822499    1.175129   -1.556829
     34          1           0        0.940371    1.067352   -1.561148
     35          1           0       -0.719236    2.739118    0.432211
     36          1           0        1.051371    2.634213    0.414338
     37          1           0       -0.687253    3.652318   -1.909064
     38          1           0        1.078980    3.546563   -1.928500
     39          1           0       -0.570338    5.247584    0.034958
     40          1           0        1.192655    5.139609    0.020142
     41          1           0        0.425697    7.208944   -1.189045
     42          1           0        1.237920    6.105678   -2.324092
     43          1           0       -0.537035    6.215754   -2.308112
     44          1           0       -1.072992    0.945110    1.560852
     45          1           0       -1.174368   -0.818060    1.559873
     46          1           0       -2.639935    1.042715   -0.419141
     47          1           0       -2.737849   -0.728530   -0.426831
     48          1           0       -3.554533    1.082781    1.920712
     49          1           0       -3.651638   -0.684011    1.915730
     50          1           0       -5.246879   -0.591267   -0.029077
     51          1           0       -5.147173    1.172298   -0.029763
     52          1           0       -7.213239    0.405914    1.185822
     53          1           0       -6.114211    1.233652    2.313706
     54          1           0       -6.215459   -0.541879    2.313583
     55          1           0        1.064200   -0.943080    1.561694
     56          1           0        1.166855    0.820786    1.560928
     57          1           0        2.630297   -1.040368   -0.418256
     58          1           0        2.731934    0.730587   -0.423292
     59          1           0        3.543134   -1.086088    1.922358
     60          1           0        3.644470    0.680444    1.920125
     61          1           0        5.241403    0.586898   -0.023246
     62          1           0        5.137021   -1.176377   -0.027295
     63          1           0        7.203978   -0.417785    1.191631
     64          1           0        6.101674   -1.244706    2.316916
     65          1           0        6.207650    0.530552    2.320224
 ---------------------------------------------------------------------

 SCF Done:  E(RB-P86) =  -843.489779886     A.U. after   10 cycles

 The electronic state is 1-A.
 Alpha  occ. eigenvalues --  -14.12497  -9.94752  -9.94746  -9.94743  -9.94733
 Alpha  occ. eigenvalues --   -9.90405  -9.90402  -9.90401  -9.90398  -9.89497
 Alpha  occ. eigenvalues --   -9.89496  -9.89495  -9.89495  -9.89089  -9.89088
 Alpha  occ. eigenvalues --   -9.89088  -9.89088  -9.88186  -9.88186  -9.88186
 Alpha  occ. eigenvalues --   -9.88186  -0.92600  -0.74483  -0.74479  -0.73846
 Alpha  occ. eigenvalues --   -0.73012  -0.69663  -0.69661  -0.69558  -0.67291
 Alpha  occ. eigenvalues --   -0.64392  -0.62366  -0.62364  -0.58815  -0.57307
 Alpha  occ. eigenvalues --   -0.54531  -0.54529  -0.52365  -0.52362  -0.52173
 Alpha  occ. eigenvalues --   -0.52090  -0.51856  -0.47789  -0.47788  -0.45461
 Alpha  occ. eigenvalues --   -0.43931  -0.42644  -0.42642  -0.42548  -0.40265
 Alpha  occ. eigenvalues --   -0.38866  -0.38699  -0.38694  -0.38556  -0.38181
 Alpha  occ. eigenvalues --   -0.37992  -0.37332  -0.37330  -0.36509  -0.36505
 Alpha  occ. eigenvalues --   -0.35780  -0.34117  -0.34000  -0.33996  -0.33989
 Alpha  occ. eigenvalues --   -0.33651  -0.32434  -0.32430  -0.31740  -0.30697
 Alpha  occ. eigenvalues --   -0.30554  -0.30552  -0.30273  -0.29796  -0.29576
 Alpha  occ. eigenvalues --   -0.29576  -0.29447  -0.29320  -0.29214  -0.28384
 Alpha  occ. eigenvalues --   -0.28383  -0.28328  -0.28327  -0.28286  -0.28171
 Alpha virt. eigenvalues --    0.00438   0.02330   0.02331   0.02492   0.02734
 Alpha virt. eigenvalues --    0.03629   0.03880   0.04207   0.04208   0.04307
 Alpha virt. eigenvalues --    0.04979   0.04985   0.06366   0.07091   0.07092

 Mulliken charges:
               1
     1  C   -0.423103
     2  C   -0.224471
     3  C   -0.323277
     4  C   -0.164954
     5  C   -0.322967
     6  N   -0.142718
     7  C   -0.322325
     8  C   -0.164868
     9  C   -0.323305
    10  C   -0.224382
    11  C   -0.423124
    12  C   -0.321045
    13  C   -0.165251
    14  C   -0.323770
    15  C   -0.224333
    16  C   -0.423061
    17  C   -0.324045
    18  C   -0.165484
    19  C   -0.323042
    20  C   -0.224514
    21  C   -0.423081
    22  H    0.134159
    23  H    0.134011
    24  H    0.147063
    25  H    0.132686
    26  H    0.133011
    27  H    0.138567
    28  H    0.138378
    29  H    0.165337
    30  H    0.165437
    31  H    0.227595
    32  H    0.228062
    33  H    0.227616
    34  H    0.228331
    35  H    0.165229
    36  H    0.165339
    37  H    0.138579
    38  H    0.138379
    39  H    0.132847
    40  H    0.132782
    41  H    0.147068
    42  H    0.134122
    43  H    0.134060
    44  H    0.227314
    45  H    0.227536
    46  H    0.165265
    47  H    0.165118
    48  H    0.138531
    49  H    0.138491
    50  H    0.132905
    51  H    0.132719
    52  H    0.147072
    53  H    0.134126
    54  H    0.134041
    55  H    0.227961
    56  H    0.228214
    57  H    0.165693
    58  H    0.165639
    59  H    0.138463
    60  H    0.138485
    61  H    0.132927
    62  H    0.132739
    63  H    0.147057
    64  H    0.134132
    65  H    0.134034
 Sum of Mulliken charges =   1.00000

 Dipole moment (field-independent basis, Debye):
    X=             -0.0077    Y=              0.0050    Z=             -0.0020  Tot=              0.0094
 Quadrupole moment (field-independent basis, Debye-Ang):
   XX=           -125.9223   YY=           -125.9404   ZZ=           -134.4684
   XY=             -0.0030   XZ=             -0.0259   YZ=              0.0057

 86/TZVP SCRF=COSMORS geom=CHECKPOINT guess=CHECKPOINT\\COSMO-file for
 #GJSGYPDDPQRWPK-UHFFFAOYSA-N\\1,1\C,0,-0.828551402,7.0700791964,-2.507
 6608803\C,0,-0.962691598,6.2648009299,-1.2099342203\C,0,-0.011844571,5
 .0611939532,-1.16110792\C,0,-0.1421167771,4.2599358155,0.1452529131\C,
 0,0.8204106969,3.0795696973,0.1288485673\N,0,0.8076927976,2.1852782716
 ,1.3717311598\C,0,1.8388577516,1.0814542745,1.121152869\C,0,1.99776677
 38,0.0502622614,2.2308686408\C,0,3.0674739289,-0.9825812344,1.83771042
 21\C,0,3.2741747377,-2.0542110491,2.9166926552\C,0,4.3371027094,-3.087

 Normal termination of Gaussian 16 at Tue Feb 23 01:10:01 2021.
