 Gaussian 16, Revision C.01,

 -------------------------------------------------------------
 #P BP86/TZVP EmpiricalDispersion=GD3 SCRF=(Solvent=Water) Opt
 -------------------------------------------------------------

 -------------------------------------
 Particle #GLDOVTGHNKAZLK-UHFFFAOYSA-N
 -------------------------------------
 Symbolic Z-matrix:
 Charge =  0 Multiplicity = 1

 SCF Done:  E(RB-P86) =  -784.331919112     A.U. after   11 cycles
 SCF Done:  E(RB-P86) =  -784.338324068     A.U. after    9 cycles
 SCF Done:  E(RB-P86) =  -784.339117153     A.U. after    8 cycles
 SCF Done:  E(RB-P86) =  -784.339144126     A.U. after    7 cycles
 SCF Done:  E(RB-P86) =  -784.339144747     A.U. after    6 cycles
 Optimization completed.
    -- Stationary point found.
 Normal termination of Gaussian 16 at Mon Feb 22 21:10:22 2021.
 Gaussian 16:  ES64L-G16RevC.01  3-Jul-2019

 ---------------------------------------------------------
 # BP86/TZVP SCRF=COSMORS geom=CHECKPOINT guess=CHECKPOINT
 ---------------------------------------------------------

 -------------------------------------------
 COSMO-file for #GLDOVTGHNKAZLK-UHFFFAOYSA-N
 -------------------------------------------
 Structure from the checkpoint file:  "GLDOVTGHNKAZLK-UHFFFAOYSA-N.chk"
 Charge =  0 Multiplicity = 1

                         Standard orientation:
 ---------------------------------------------------------------------
 Center     Atomic      Atomic             Coordinates (Angstroms)
 Number     Number       Type             X           Y           Z
 ---------------------------------------------------------------------
      1          6           0       11.530648   -0.403810    0.000000
      2          6           0       10.256257    0.449755    0.000000
      3          6           0        8.971146   -0.389308   -0.000000
      4          6           0        7.688223    0.452083    0.000000
      5          6           0        6.404486   -0.388235   -0.000000
      6          6           0        5.121354    0.452986    0.000000
      7          6           0        3.837883   -0.387699   -0.000000
      8          6           0        2.554381    0.452952   -0.000000
      9          6           0        1.271356   -0.388414   -0.000000
     10          6           0       -0.012708    0.451395   -0.000000
     11          6           0       -1.295076   -0.390971   -0.000000
     12          6           0       -2.579802    0.447801   -0.000000
     13          6           0       -3.861225   -0.395971   -0.000000
     14          6           0       -5.146588    0.441774   -0.000000
     15          6           0       -6.426221   -0.404378    0.000000
     16          6           0       -7.711521    0.433677   -0.000000
     17          6           0       -8.986360   -0.420602    0.000000
     18          6           0      -10.255390    0.420179   -0.000000
     19          8           0      -11.393528   -0.472340    0.000001
     20          1           0       12.438103    0.219609    0.000000
     21          1           0       11.570033   -1.054304    0.888855
     22          1           0       11.570034   -1.054303   -0.888855
     23          1           0       10.254209    1.113909   -0.882622
     24          1           0       10.254209    1.113908    0.882624
     25          1           0        8.971367   -1.054590    0.883197
     26          1           0        8.971367   -1.054589   -0.883198
     27          1           0        7.688432    1.117047    0.883260
     28          1           0        7.688432    1.117048   -0.883259
     29          1           0        6.404218   -1.053230   -0.883214
     30          1           0        6.404218   -1.053230    0.883213
     31          1           0        5.121485    1.117953   -0.883240
     32          1           0        5.121485    1.117952    0.883240
     33          1           0        3.837893   -1.052694   -0.883225
     34          1           0        3.837893   -1.052694    0.883224
     35          1           0        2.554201    1.117911   -0.883245
     36          1           0        2.554201    1.117911    0.883245
     37          1           0        1.271755   -1.053412    0.883219
     38          1           0        1.271755   -1.053412   -0.883220
     39          1           0       -0.013365    1.116336   -0.883254
     40          1           0       -0.013365    1.116335    0.883253
     41          1           0       -1.294153   -1.055964   -0.883217
     42          1           0       -1.294153   -1.055964    0.883216
     43          1           0       -2.581099    1.112697   -0.883268
     44          1           0       -2.581099    1.112697    0.883268
     45          1           0       -3.859655   -1.060887   -0.883233
     46          1           0       -3.859655   -1.060887    0.883233
     47          1           0       -5.148689    1.106457   -0.883353
     48          1           0       -5.148689    1.106457    0.883352
     49          1           0       -6.424338   -1.068704    0.883376
     50          1           0       -6.424338   -1.068704   -0.883376
     51          1           0       -7.712588    1.097301    0.883613
     52          1           0       -7.712588    1.097301   -0.883614
     53          1           0       -8.994702   -1.077539    0.886997
     54          1           0       -8.994702   -1.077540   -0.886997
     55          1           0      -10.273637    1.073411   -0.893931
     56          1           0      -10.273637    1.073412    0.893930
     57          1           0      -12.197662    0.076426   -0.000001
 ---------------------------------------------------------------------

 SCF Done:  E(RB-P86) =  -784.289623206     A.U. after    9 cycles

 The electronic state is 1-A.
 Alpha  occ. eigenvalues --  -18.76874  -9.93680  -9.88919  -9.88898  -9.88709
 Alpha  occ. eigenvalues --   -9.88627  -9.88514  -9.88484  -9.88472  -9.88470
 Alpha  occ. eigenvalues --   -9.88467  -9.88465  -9.88463  -9.88460  -9.88456
 Alpha  occ. eigenvalues --   -9.88455  -9.88452  -9.88449  -9.88052  -0.93022
 Alpha  occ. eigenvalues --   -0.73859  -0.73402  -0.72576  -0.71398  -0.69889
 Alpha  occ. eigenvalues --   -0.68072  -0.65973  -0.63629  -0.61093  -0.58446
 Alpha  occ. eigenvalues --   -0.55822  -0.53482  -0.51995  -0.51659  -0.51373
 Alpha  occ. eigenvalues --   -0.51194  -0.50691  -0.50634  -0.45584  -0.43595
 Alpha  occ. eigenvalues --   -0.43232  -0.42545  -0.41566  -0.40325  -0.38860
 Alpha  occ. eigenvalues --   -0.38732  -0.38380  -0.37824  -0.37237  -0.37220
 Alpha  occ. eigenvalues --   -0.35865  -0.35560  -0.35472  -0.34108  -0.33702
 Alpha  occ. eigenvalues --   -0.32916  -0.32471  -0.32005  -0.31005  -0.30494
 Alpha  occ. eigenvalues --   -0.30379  -0.29605  -0.29258  -0.29127  -0.28688
 Alpha  occ. eigenvalues --   -0.28388  -0.28361  -0.28106  -0.27975  -0.27807
 Alpha  occ. eigenvalues --   -0.27530  -0.27473  -0.27362  -0.27351  -0.26872
 Alpha  occ. eigenvalues --   -0.25033  -0.23172
 Alpha virt. eigenvalues --    0.02155   0.02443   0.02669   0.03016   0.03610
 Alpha virt. eigenvalues --    0.04324   0.04696   0.04880   0.05235   0.05264
 Alpha virt. eigenvalues --    0.05391   0.06230   0.06281   0.06484   0.07596

 Mulliken charges:
               1
     1  C   -0.418584
     2  C   -0.227873
     3  C   -0.259862
     4  C   -0.243504
     5  C   -0.253010
     6  C   -0.251356
     7  C   -0.252209
     8  C   -0.251325
     9  C   -0.251749
    10  C   -0.250957
    11  C   -0.251999
    12  C   -0.251151
    13  C   -0.253218
    14  C   -0.249599
    15  C   -0.255664
    16  C   -0.274857
    17  C   -0.197618
    18  C   -0.172978
    19  O   -0.437249
    20  H    0.144453
    21  H    0.131681
    22  H    0.131690
    23  H    0.126659
    24  H    0.126659
    25  H    0.122694
    26  H    0.122697
    27  H    0.123660
    28  H    0.123658
    29  H    0.125218
    30  H    0.125218
    31  H    0.125573
    32  H    0.125574
    33  H    0.125676
    34  H    0.125675
    35  H    0.125639
    36  H    0.125639
    37  H    0.125634
    38  H    0.125634
    39  H    0.125637
    40  H    0.125638
    41  H    0.125678
    42  H    0.125678
    43  H    0.125796
    44  H    0.125797
    45  H    0.126021
    46  H    0.126022
    47  H    0.126401
    48  H    0.126402
    49  H    0.127622
    50  H    0.127620
    51  H    0.129415
    52  H    0.129413
    53  H    0.127044
    54  H    0.127060
    55  H    0.128478
    56  H    0.128490
    57  H    0.311220
 Sum of Mulliken charges =  -0.00000

 Dipole moment (field-independent basis, Debye):
    X=              0.0327    Y=              2.2357    Z=             -0.0000  Tot=              2.2359
 Quadrupole moment (field-independent basis, Debye-Ang):
   XX=           -129.2067   YY=           -131.8052   ZZ=           -125.7421
   XY=            -24.2629   XZ=              0.0015   YZ=              0.0000

 Normal termination of Gaussian 16 at Mon Feb 22 21:11:08 2021.
