 Gaussian 16, Revision C.01,

 -------------------------------------------------------------
 #P BP86/TZVP EmpiricalDispersion=GD3 SCRF=(Solvent=Water) Opt
 -------------------------------------------------------------

 -------------------------------------
 Particle #HEFNNWSXXWATRW-UHFFFAOYSA-N
 -------------------------------------
 Symbolic Z-matrix:
 Charge =  0 Multiplicity = 1

 SCF Done:  E(RB-P86) =  -656.932133646     A.U. after   15 cycles
 SCF Done:  E(RB-P86) =  -656.956141850     A.U. after   12 cycles
 SCF Done:  E(RB-P86) =  -656.959098504     A.U. after   11 cycles
 SCF Done:  E(RB-P86) =  -656.959184794     A.U. after   10 cycles
 SCF Done:  E(RB-P86) =  -656.959259447     A.U. after   10 cycles
 SCF Done:  E(RB-P86) =  -656.959334909     A.U. after    9 cycles
 SCF Done:  E(RB-P86) =  -656.959359689     A.U. after   10 cycles
 SCF Done:  E(RB-P86) =  -656.959366631     A.U. after    9 cycles
 SCF Done:  E(RB-P86) =  -656.959369570     A.U. after    9 cycles
 SCF Done:  E(RB-P86) =  -656.959370581     A.U. after    8 cycles
 SCF Done:  E(RB-P86) =  -656.959370625     A.U. after    7 cycles
 SCF Done:  E(RB-P86) =  -656.959370650     A.U. after    8 cycles
 SCF Done:  E(RB-P86) =  -656.959370621     A.U. after    7 cycles
 Optimization completed.
    -- Stationary point found.
 Normal termination of Gaussian 16 at Mon Feb 22 21:14:37 2021.
 Gaussian 16:  ES64L-G16RevC.01  3-Jul-2019

 ---------------------------------------------------------
 # BP86/TZVP SCRF=COSMORS geom=CHECKPOINT guess=CHECKPOINT
 ---------------------------------------------------------

 -------------------------------------------
 COSMO-file for #HEFNNWSXXWATRW-UHFFFAOYSA-N
 -------------------------------------------
 Structure from the checkpoint file:  "HEFNNWSXXWATRW-UHFFFAOYSA-N.chk"
 Charge =  0 Multiplicity = 1

                         Standard orientation:
 ---------------------------------------------------------------------
 Center     Atomic      Atomic             Coordinates (Angstroms)
 Number     Number       Type             X           Y           Z
 ---------------------------------------------------------------------
      1          6           0        5.244154    0.203466   -0.220297
      2          6           0        3.722839    0.370966   -0.343360
      3          6           0        3.278410    1.754437    0.151152
      4          6           0        2.996002   -0.766725    0.420215
      5          6           0        1.495219   -0.745326    0.247363
      6          6           0        0.907436   -1.187860   -0.949906
      7          6           0       -0.476315   -1.125978   -1.141316
      8          6           0       -1.318561   -0.623822   -0.136770
      9          6           0       -2.831190   -0.578253   -0.350997
     10          6           0       -3.602385   -1.422616    0.679264
     11          6           0       -3.266824    0.883030   -0.390413
     12          8           0       -3.333404    1.559727   -1.405459
     13          8           0       -3.544008    1.382736    0.845240
     14          6           0       -0.736998   -0.178634    1.061724
     15          6           0        0.647291   -0.239791    1.247412
     16          1           0        5.573651   -0.775807   -0.601910
     17          1           0        5.557408    0.277959    0.834694
     18          1           0        5.775896    0.985876   -0.783851
     19          1           0        3.447900    0.279567   -1.410388
     20          1           0        3.789706    2.554915   -0.405633
     21          1           0        3.520428    1.877173    1.220518
     22          1           0        2.193355    1.896497    0.035022
     23          1           0        3.393042   -1.733640    0.066979
     24          1           0        3.250546   -0.688173    1.491408
     25          1           0        1.543293   -1.589284   -1.743996
     26          1           0       -0.909578   -1.479886   -2.080547
     27          1           0       -3.037913   -0.958772   -1.361912
     28          1           0       -4.685611   -1.373812    0.495741
     29          1           0       -3.410745   -1.074753    1.702964
     30          1           0       -3.281768   -2.471274    0.603102
     31          1           0       -3.765498    2.332732    0.735782
     32          1           0       -1.370319    0.227365    1.853674
     33          1           0        1.081046    0.116247    2.185678
 ---------------------------------------------------------------------

 SCF Done:  E(RB-P86) =  -656.930323241     A.U. after   11 cycles

 The electronic state is 1-A.
 Alpha  occ. eigenvalues --  -18.82256 -18.77089 -10.03420  -9.92648  -9.91729
 Alpha  occ. eigenvalues --   -9.90965  -9.90384  -9.90308  -9.90121  -9.90106
 Alpha  occ. eigenvalues --   -9.90103  -9.89395  -9.89348  -9.88080  -9.87934
 Alpha  occ. eigenvalues --   -1.02414  -0.94116  -0.79247  -0.74830  -0.72402
 Alpha  occ. eigenvalues --   -0.67942  -0.67530  -0.61623  -0.61280  -0.60237
 Alpha  occ. eigenvalues --   -0.56228  -0.54658  -0.52216  -0.49998  -0.46282
 Alpha  occ. eigenvalues --   -0.44512  -0.43700  -0.42731  -0.41242  -0.40262
 Alpha  occ. eigenvalues --   -0.39648  -0.39103  -0.38283  -0.37396  -0.36796
 Alpha  occ. eigenvalues --   -0.36052  -0.34774  -0.33820  -0.33554  -0.32925
 Alpha  occ. eigenvalues --   -0.32191  -0.31698  -0.30662  -0.29640  -0.29321
 Alpha  occ. eigenvalues --   -0.29108  -0.28356  -0.27957  -0.25002  -0.23510
 Alpha  occ. eigenvalues --   -0.21905
 Alpha virt. eigenvalues --   -0.06068  -0.04946  -0.03174   0.02012   0.02825
 Alpha virt. eigenvalues --    0.04881   0.05178   0.05656   0.06220   0.06600
 Alpha virt. eigenvalues --    0.07139   0.08353   0.08691   0.09059   0.09420

 Mulliken charges:
               1
     1  C   -0.421553
     2  C   -0.107357
     3  C   -0.451116
     4  C   -0.339228
     5  C    0.045658
     6  C   -0.178289
     7  C   -0.135503
     8  C   -0.032358
     9  C   -0.186758
    10  C   -0.420477
    11  C    0.188383
    12  O   -0.353259
    13  O   -0.257367
    14  C   -0.125036
    15  C   -0.152662
    16  H    0.142971
    17  H    0.133115
    18  H    0.147281
    19  H    0.157012
    20  H    0.144718
    21  H    0.132845
    22  H    0.158147
    23  H    0.161845
    24  H    0.161365
    25  H    0.145082
    26  H    0.143720
    27  H    0.202881
    28  H    0.159540
    29  H    0.159717
    30  H    0.151435
    31  H    0.329569
    32  H    0.154053
    33  H    0.141627
 Sum of Mulliken charges =  -0.00000

 Dipole moment (field-independent basis, Debye):
    X=              0.8063    Y=             -1.0181    Z=              2.0028  Tot=              2.3870
 Quadrupole moment (field-independent basis, Debye-Ang):
   XX=            -84.6582   YY=            -90.7826   ZZ=            -93.1470
   XY=              1.2202   XZ=             -7.5286   YZ=              9.0523

 Normal termination of Gaussian 16 at Mon Feb 22 21:15:08 2021.
