 Gaussian 16, Revision C.01,

 -------------------------------------------------------------
 #P BP86/TZVP EmpiricalDispersion=GD3 SCRF=(Solvent=Water) Opt
 -------------------------------------------------------------

 -------------------------------------
 Particle #ICFJFFQQTFMIBG-UHFFFAOYSA-N
 -------------------------------------
 Symbolic Z-matrix:
 Charge =  0 Multiplicity = 1

 SCF Done:  E(RB-P86) =  -664.086904217     A.U. after   14 cycles
 SCF Done:  E(RB-P86) =  -664.132489296     A.U. after   12 cycles
 SCF Done:  E(RB-P86) =  -664.144659944     A.U. after   13 cycles
 SCF Done:  E(RB-P86) =  -664.143912858     A.U. after   11 cycles
 SCF Done:  E(RB-P86) =  -664.146071227     A.U. after   11 cycles
 SCF Done:  E(RB-P86) =  -664.146495288     A.U. after   11 cycles
 SCF Done:  E(RB-P86) =  -664.146572415     A.U. after   10 cycles
 SCF Done:  E(RB-P86) =  -664.146631159     A.U. after    9 cycles
 SCF Done:  E(RB-P86) =  -664.146667094     A.U. after    9 cycles
 SCF Done:  E(RB-P86) =  -664.146712857     A.U. after   10 cycles
 SCF Done:  E(RB-P86) =  -664.148158794     A.U. after    9 cycles
 SCF Done:  E(RB-P86) =  -664.148159486     A.U. after    8 cycles
 SCF Done:  E(RB-P86) =  -664.148168178     A.U. after    8 cycles
 SCF Done:  E(RB-P86) =  -664.148171722     A.U. after    8 cycles
 SCF Done:  E(RB-P86) =  -664.148173567     A.U. after    8 cycles
 SCF Done:  E(RB-P86) =  -664.148174316     A.U. after    8 cycles
 SCF Done:  E(RB-P86) =  -664.148174726     A.U. after    8 cycles
 SCF Done:  E(RB-P86) =  -664.148174897     A.U. after    7 cycles
 SCF Done:  E(RB-P86) =  -664.148174982     A.U. after    7 cycles
 Optimization completed.
    -- Stationary point found.
 Normal termination of Gaussian 16 at Mon Feb 22 21:42:36 2021.
 Gaussian 16:  ES64L-G16RevC.01  3-Jul-2019

 ---------------------------------------------------------
 # BP86/TZVP SCRF=COSMORS geom=CHECKPOINT guess=CHECKPOINT
 ---------------------------------------------------------

 -------------------------------------------
 COSMO-file for #ICFJFFQQTFMIBG-UHFFFAOYSA-N
 -------------------------------------------
 Structure from the checkpoint file:  "ICFJFFQQTFMIBG-UHFFFAOYSA-N.chk"
 Charge =  0 Multiplicity = 1

                         Standard orientation:
 ---------------------------------------------------------------------
 Center     Atomic      Atomic             Coordinates (Angstroms)
 Number     Number       Type             X           Y           Z
 ---------------------------------------------------------------------
      1          7           0        1.363030   -1.659939    0.405107
      2          6           0        2.595371   -1.281385   -0.010677
      3          7           0        3.584332   -2.242504   -0.055146
      4          7           0        2.938782   -0.049673   -0.365595
      5          6           0        2.047312    1.003499   -0.238458
      6          7           0        2.525356    2.161272   -0.847932
      7          7           0        0.874426    0.919402    0.339338
      8          6           0        0.013460    2.089225    0.384319
      9          6           0       -1.291606    1.757332    1.136671
     10          6           0       -2.042337    0.609568    0.500702
     11          6           0       -1.996437   -0.681807    1.051719
     12          6           0       -2.640194   -1.757150    0.426722
     13          6           0       -3.346068   -1.555794   -0.765651
     14          6           0       -3.405103   -0.271421   -1.323750
     15          6           0       -2.757709    0.798253   -0.695329
     16          1           0        0.724320   -0.853551    0.578834
     17          1           0        1.194338   -2.584386    0.788526
     18          1           0        4.396948   -1.984466   -0.608825
     19          1           0        3.302631   -3.215424   -0.146842
     20          1           0        3.528101    2.166052   -1.017946
     21          1           0        2.152360    3.051167   -0.527208
     22          1           0        0.496577    2.947881    0.898680
     23          1           0       -0.243023    2.439913   -0.637340
     24          1           0       -1.923488    2.660726    1.155996
     25          1           0       -1.043104    1.507641    2.180473
     26          1           0       -1.444512   -0.845495    1.981324
     27          1           0       -2.588524   -2.753896    0.871173
     28          1           0       -3.849944   -2.391955   -1.255424
     29          1           0       -3.958035   -0.103213   -2.251011
     30          1           0       -2.806259    1.797174   -1.138426
 ---------------------------------------------------------------------

 SCF Done:  E(RB-P86) =  -664.129910294     A.U. after   11 cycles

 The electronic state is 1-A.
 Alpha  occ. eigenvalues --  -14.01267 -14.00599 -14.00432 -13.97150 -13.96399
 Alpha  occ. eigenvalues --  -10.00276  -9.98115  -9.91879  -9.90897  -9.90211
 Alpha  occ. eigenvalues --   -9.90175  -9.90045  -9.89941  -9.89902  -9.89508
 Alpha  occ. eigenvalues --   -0.91182  -0.86817  -0.80055  -0.78886  -0.77743
 Alpha  occ. eigenvalues --   -0.77588  -0.70741  -0.67629  -0.65039  -0.59456
 Alpha  occ. eigenvalues --   -0.55812  -0.54678  -0.52769  -0.51731  -0.49544
 Alpha  occ. eigenvalues --   -0.47609  -0.46315  -0.45943  -0.43528  -0.41929
 Alpha  occ. eigenvalues --   -0.41656  -0.40511  -0.39718  -0.39258  -0.37469
 Alpha  occ. eigenvalues --   -0.37159  -0.35684  -0.34882  -0.33034  -0.32100
 Alpha  occ. eigenvalues --   -0.31238  -0.29635  -0.29199  -0.24021  -0.23807
 Alpha  occ. eigenvalues --   -0.23356  -0.22418  -0.21900  -0.21620  -0.19221
 Alpha virt. eigenvalues --   -0.04696  -0.04412  -0.02935   0.02216   0.03216
 Alpha virt. eigenvalues --    0.04100   0.04895   0.05865   0.05955   0.07261
 Alpha virt. eigenvalues --    0.07499   0.08306   0.09075   0.09326   0.09991

 Mulliken charges:
               1
     1  N   -0.405190
     2  C    0.120745
     3  N   -0.376625
     4  N   -0.310875
     5  C    0.098970
     6  N   -0.393030
     7  N   -0.385564
     8  C   -0.329789
     9  C   -0.278197
    10  C    0.074652
    11  C   -0.195880
    12  C   -0.131447
    13  C   -0.168906
    14  C   -0.129132
    15  C   -0.197570
    16  H    0.308890
    17  H    0.278600
    18  H    0.268716
    19  H    0.275074
    20  H    0.256872
    21  H    0.272297
    22  H    0.152126
    23  H    0.156330
    24  H    0.158711
    25  H    0.151786
    26  H    0.145826
    27  H    0.143297
    28  H    0.147219
    29  H    0.145177
    30  H    0.146916
 Sum of Mulliken charges =  -0.00000

 Dipole moment (field-independent basis, Debye):
    X=              1.0867    Y=             -1.7599    Z=              0.3496  Tot=              2.0976
 Quadrupole moment (field-independent basis, Debye-Ang):
   XX=            -88.0182   YY=            -60.9038   ZZ=            -91.6750
   XY=             -5.1162   XZ=              0.2988   YZ=             -0.6848

 Normal termination of Gaussian 16 at Mon Feb 22 21:43:03 2021.
