 Gaussian 16, Revision C.01,

 -------------------------------------------------------------
 #P BP86/TZVP EmpiricalDispersion=GD3 SCRF=(Solvent=Water) Opt
 -------------------------------------------------------------

 -------------------------------------
 Particle #IPCSVZSSVZVIGE-UHFFFAOYSA-N
 -------------------------------------
 Symbolic Z-matrix:
 Charge =  0 Multiplicity = 1

 SCF Done:  E(RB-P86) =  -779.755240313     A.U. after   13 cycles
 SCF Done:  E(RB-P86) =  -779.767219182     A.U. after   10 cycles
 SCF Done:  E(RB-P86) =  -779.768579480     A.U. after    9 cycles
 SCF Done:  E(RB-P86) =  -779.768519424     A.U. after   10 cycles
 SCF Done:  E(RB-P86) =  -779.768734012     A.U. after    9 cycles
 SCF Done:  E(RB-P86) =  -779.768763167     A.U. after    8 cycles
 SCF Done:  E(RB-P86) =  -779.768765470     A.U. after    7 cycles
 SCF Done:  E(RB-P86) =  -779.768768512     A.U. after    8 cycles
 SCF Done:  E(RB-P86) =  -779.768771524     A.U. after    8 cycles
 SCF Done:  E(RB-P86) =  -779.768778127     A.U. after    9 cycles
 SCF Done:  E(RB-P86) =  -779.768767143     A.U. after   10 cycles
 SCF Done:  E(RB-P86) =  -779.768805427     A.U. after    9 cycles
 SCF Done:  E(RB-P86) =  -779.768808387     A.U. after    7 cycles
 SCF Done:  E(RB-P86) =  -779.768804877     A.U. after    9 cycles
 SCF Done:  E(RB-P86) =  -779.768807783     A.U. after    8 cycles
 SCF Done:  E(RB-P86) =  -779.768808129     A.U. after    6 cycles
 SCF Done:  E(RB-P86) =  -779.768808374     A.U. after    6 cycles
 SCF Done:  E(RB-P86) =  -779.768806497     A.U. after    8 cycles
 SCF Done:  E(RB-P86) =  -779.768806942     A.U. after    6 cycles
 Optimization completed.
    -- Stationary point found.
 Normal termination of Gaussian 16 at Mon Feb 22 21:28:43 2021.
 Gaussian 16:  ES64L-G16RevC.01  3-Jul-2019

 ---------------------------------------------------------
 # BP86/TZVP SCRF=COSMORS geom=CHECKPOINT guess=CHECKPOINT
 ---------------------------------------------------------

 -------------------------------------------
 COSMO-file for #IPCSVZSSVZVIGE-UHFFFAOYSA-N
 -------------------------------------------
 Structure from the checkpoint file:  "IPCSVZSSVZVIGE-UHFFFAOYSA-N.chk"
 Charge =  0 Multiplicity = 1

                         Standard orientation:
 ---------------------------------------------------------------------
 Center     Atomic      Atomic             Coordinates (Angstroms)
 Number     Number       Type             X           Y           Z
 ---------------------------------------------------------------------
      1          6           0       10.606567   -0.230026   -0.076125
      2          6           0        9.310654    0.566886    0.118866
      3          6           0        8.047552   -0.282288   -0.078958
      4          6           0        6.743430    0.502453    0.113817
      5          6           0        5.481837   -0.347900   -0.084647
      6          6           0        4.177390    0.436379    0.108665
      7          6           0        2.916211   -0.414410   -0.090246
      8          6           0        1.611413    0.369259    0.103065
      9          6           0        0.350776   -0.482140   -0.096627
     10          6           0       -0.954310    0.301194    0.095996
     11          6           0       -2.213928   -0.551360   -0.104938
     12          6           0       -3.518791    0.232812    0.086419
     13          6           0       -4.775622   -0.623324   -0.116650
     14          6           0       -6.075230    0.168113    0.074047
     15          6           0       -7.328991   -0.712234   -0.133554
     16          6           0       -8.592078    0.081029    0.094102
     17          8           0       -9.243265    0.102703    1.128645
     18          8           0       -8.920890    0.836695   -0.994130
     19          1           0       10.659433   -0.655449   -1.091495
     20          1           0       10.666079   -1.067655    0.637734
     21          1           0       11.497641    0.399763    0.070573
     22          1           0        9.288250    1.417441   -0.585541
     23          1           0        9.294740    1.007810    1.131514
     24          1           0        8.061508   -0.723855   -1.092587
     25          1           0        8.068367   -1.134373    0.625420
     26          1           0        6.729849    0.943491    1.127529
     27          1           0        6.723160    1.354430   -0.590493
     28          1           0        5.502290   -1.200125    0.619320
     29          1           0        5.495198   -0.788610   -1.098483
     30          1           0        4.156855    1.288717   -0.595171
     31          1           0        4.163768    0.876854    1.122601
     32          1           0        2.936908   -1.266856    0.613455
     33          1           0        2.929923   -0.854774   -1.104234
     34          1           0        1.590685    1.221837   -0.600461
     35          1           0        1.597281    0.809292    1.117173
     36          1           0        0.365231   -0.922333   -1.110655
     37          1           0        0.371396   -1.334586    0.607036
     38          1           0       -0.975017    1.153725   -0.607498
     39          1           0       -0.969484    0.740882    1.110173
     40          1           0       -2.193966   -1.403321    0.599113
     41          1           0       -2.198493   -0.991381   -1.118880
     42          1           0       -3.535747    0.671711    1.100606
     43          1           0       -3.539441    1.084529   -0.617620
     44          1           0       -4.758289   -1.473609    0.588513
     45          1           0       -4.761307   -1.061527   -1.130776
     46          1           0       -6.103400    1.012697   -0.634137
     47          1           0       -6.100208    0.600481    1.088776
     48          1           0       -7.325307   -1.548875    0.578751
     49          1           0       -7.329195   -1.119382   -1.156170
     50          1           0       -9.716752    1.361195   -0.759594
 ---------------------------------------------------------------------

 SCF Done:  E(RB-P86) =  -779.726899775     A.U. after    9 cycles

 The electronic state is 1-A.
 Alpha  occ. eigenvalues --  -18.81957 -18.76903 -10.03175  -9.90951  -9.90102
 Alpha  occ. eigenvalues --   -9.89031  -9.88710  -9.88699  -9.88562  -9.88499
 Alpha  occ. eigenvalues --   -9.88476  -9.88472  -9.88468  -9.88465  -9.88460
 Alpha  occ. eigenvalues --   -9.88455  -9.88453  -9.88052  -1.02068  -0.93833
 Alpha  occ. eigenvalues --   -0.74161  -0.73505  -0.72465  -0.70973  -0.69064
 Alpha  occ. eigenvalues --   -0.66774  -0.64151  -0.61279  -0.58325  -0.55674
 Alpha  occ. eigenvalues --   -0.53868  -0.52406  -0.51594  -0.51433  -0.50852
 Alpha  occ. eigenvalues --   -0.50725  -0.45197  -0.43441  -0.43314  -0.42845
 Alpha  occ. eigenvalues --   -0.41828  -0.41271  -0.40423  -0.38720  -0.38576
 Alpha  occ. eigenvalues --   -0.38058  -0.37152  -0.36774  -0.36587  -0.35559
 Alpha  occ. eigenvalues --   -0.34798  -0.34450  -0.33981  -0.32781  -0.32269
 Alpha  occ. eigenvalues --   -0.31390  -0.31002  -0.30684  -0.29731  -0.29575
 Alpha  occ. eigenvalues --   -0.29077  -0.28731  -0.28397  -0.28261  -0.28021
 Alpha  occ. eigenvalues --   -0.27929  -0.27830  -0.27536  -0.27407  -0.27378
 Alpha  occ. eigenvalues --   -0.25471  -0.24356
 Alpha virt. eigenvalues --   -0.04819   0.02107   0.02370   0.02831   0.03482
 Alpha virt. eigenvalues --    0.04326   0.04760   0.04944   0.05438   0.05542
 Alpha virt. eigenvalues --    0.05635   0.06626   0.06836   0.06869   0.08016

 Mulliken charges:
               1
     1  C   -0.418582
     2  C   -0.227883
     3  C   -0.259914
     4  C   -0.243382
     5  C   -0.253103
     6  C   -0.251262
     7  C   -0.252308
     8  C   -0.251436
     9  C   -0.252037
    10  C   -0.251384
    11  C   -0.253973
    12  C   -0.250373
    13  C   -0.251151
    14  C   -0.280757
    15  C   -0.260860
    16  C    0.211227
    17  O   -0.366145
    18  O   -0.281438
    19  H    0.131663
    20  H    0.131711
    21  H    0.144483
    22  H    0.126673
    23  H    0.126629
    24  H    0.122680
    25  H    0.122720
    26  H    0.123627
    27  H    0.123644
    28  H    0.125234
    29  H    0.125210
    30  H    0.125566
    31  H    0.125562
    32  H    0.125722
    33  H    0.125708
    34  H    0.125725
    35  H    0.125724
    36  H    0.125902
    37  H    0.125896
    38  H    0.126278
    39  H    0.126251
    40  H    0.127336
    41  H    0.127363
    42  H    0.129197
    43  H    0.129506
    44  H    0.134055
    45  H    0.133145
    46  H    0.149763
    47  H    0.142314
    48  H    0.164405
    49  H    0.165604
    50  H    0.329465
 Sum of Mulliken charges =  -0.00000

 Dipole moment (field-independent basis, Debye):
    X=              1.5429    Y=              0.3087    Z=             -1.9363  Tot=              2.4950
 Quadrupole moment (field-independent basis, Debye-Ang):
   XX=           -143.0326   YY=           -117.0581   ZZ=           -120.9407
   XY=             -4.6377   XZ=             19.8415   YZ=             -1.0248

 Normal termination of Gaussian 16 at Mon Feb 22 21:29:22 2021.
