 Gaussian 16, Revision C.01,

 -------------------------------------------------------------
 #P BP86/TZVP EmpiricalDispersion=GD3 SCRF=(Solvent=Water) Opt
 -------------------------------------------------------------

 -------------------------------------
 Particle #JRMUNVKIHCOMHV-UHFFFAOYSA-M
 -------------------------------------
 Symbolic Z-matrix:
 Charge =  0 Multiplicity = 1

 SCF Done:  E(RB-P86) =  -3260.84686456     A.U. after   12 cycles
 SCF Done:  E(RB-P86) =  -3260.86020286     A.U. after   10 cycles
 SCF Done:  E(RB-P86) =  -3260.86346657     A.U. after   10 cycles
 SCF Done:  E(RB-P86) =  -3260.86277156     A.U. after   10 cycles
 SCF Done:  E(RB-P86) =  -3260.86457000     A.U. after    9 cycles
 SCF Done:  E(RB-P86) =  -3260.86537665     A.U. after    9 cycles
 SCF Done:  E(RB-P86) =  -3260.86557024     A.U. after    9 cycles
 SCF Done:  E(RB-P86) =  -3260.86570239     A.U. after    9 cycles
 SCF Done:  E(RB-P86) =  -3260.86576759     A.U. after    8 cycles
 SCF Done:  E(RB-P86) =  -3260.86580442     A.U. after    8 cycles
 SCF Done:  E(RB-P86) =  -3260.86588832     A.U. after    7 cycles
 SCF Done:  E(RB-P86) =  -3260.86589307     A.U. after    7 cycles
 SCF Done:  E(RB-P86) =  -3260.86589659     A.U. after    7 cycles
 SCF Done:  E(RB-P86) =  -3260.86589866     A.U. after    7 cycles
 SCF Done:  E(RB-P86) =  -3260.86589787     A.U. after    7 cycles
 SCF Done:  E(RB-P86) =  -3260.86589907     A.U. after    7 cycles
 SCF Done:  E(RB-P86) =  -3260.86589997     A.U. after    7 cycles
 SCF Done:  E(RB-P86) =  -3260.86590065     A.U. after    5 cycles
 SCF Done:  E(RB-P86) =  -3260.86590071     A.U. after    7 cycles
 Optimization completed.
    -- Stationary point found.
 Normal termination of Gaussian 16 at Sat Aug 21 10:16:26 2021.
 Gaussian 16:  ES64L-G16RevC.01  3-Jul-2019

 ---------------------------------------------------------
 # BP86/TZVP SCRF=COSMORS geom=CHECKPOINT guess=CHECKPOINT
 ---------------------------------------------------------

 -------------------------------------------
 COSMO-file for #JRMUNVKIHCOMHV-UHFFFAOYSA-M
 -------------------------------------------
 Structure from the checkpoint file:  "JRMUNVKIHCOMHV-UHFFFAOYSA-M.chk"
 Charge =  0 Multiplicity = 1

                         Standard orientation:
 ---------------------------------------------------------------------
 Center     Atomic      Atomic             Coordinates (Angstroms)
 Number     Number       Type             X           Y           Z
 ---------------------------------------------------------------------
      1          6           0       -5.098749   -0.423325   -0.266160
      2          6           0       -4.337889    0.732895   -0.929995
      3          6           0       -2.842529    0.448034   -1.172968
      4          6           0       -2.112457    0.222897    0.151653
      5          7           0       -0.583081    0.112124    0.091974
      6          6           0       -0.095487   -0.706965    1.298544
      7          6           0       -0.361679   -0.102590    2.675563
      8          6           0       -0.018632   -1.118244    3.785745
      9          6           0       -0.979591   -2.312426    3.864843
     10          6           0        0.089805    1.487198    0.177394
     11          6           0       -0.162655    2.469274   -0.963195
     12          6           0        0.764434    3.694788   -0.825961
     13          6           0        0.536025    4.517389    0.449583
     14          6           0       -0.097631   -0.597737   -1.171348
     15          6           0       -0.508636   -2.065065   -1.297701
     16          6           0       -0.287506   -2.568951   -2.736324
     17          6           0        1.177038   -2.508746   -3.192159
     18         35           0        3.512717   -0.267784   -0.012630
     19          1           0       -4.766989   -0.599098    0.768447
     20          1           0       -4.957454   -1.360671   -0.828002
     21          1           0       -6.177637   -0.211676   -0.230184
     22          1           0       -4.440205    1.648694   -0.322797
     23          1           0       -4.795519    0.957743   -1.906481
     24          1           0       -2.749946   -0.440597   -1.816599
     25          1           0       -2.406181    1.291091   -1.723882
     26          1           0       -2.326561    1.044350    0.848192
     27          1           0       -2.461468   -0.706394    0.618624
     28          1           0       -0.594294   -1.677913    1.208708
     29          1           0        0.985194   -0.847973    1.137939
     30          1           0       -1.417216    0.195152    2.781335
     31          1           0        0.251040    0.798446    2.821760
     32          1           0        1.016746   -1.474223    3.647085
     33          1           0       -0.031026   -0.579462    4.746429
     34          1           0       -0.936689   -2.944606    2.964867
     35          1           0       -0.734773   -2.954660    4.723916
     36          1           0       -2.020148   -1.970879    3.984584
     37          1           0        1.166590    1.266522    0.259710
     38          1           0       -0.252599    1.921025    1.122936
     39          1           0        0.026488    1.997988   -1.938500
     40          1           0       -1.209318    2.810971   -0.954538
     41          1           0        1.814406    3.358341   -0.873148
     42          1           0        0.603961    4.335383   -1.707742
     43          1           0        0.815214    3.960670    1.357109
     44          1           0        1.138376    5.437827    0.434328
     45          1           0       -0.522424    4.808534    0.546044
     46          1           0       -0.482017   -0.023692   -2.021781
     47          1           0        0.997668   -0.494583   -1.149720
     48          1           0       -1.568169   -2.200869   -1.028662
     49          1           0        0.081997   -2.686929   -0.607353
     50          1           0       -0.920445   -1.984650   -3.426757
     51          1           0       -0.647635   -3.608647   -2.791430
     52          1           0        1.297879   -2.962015   -4.187267
     53          1           0        1.547209   -1.473996   -3.254026
     54          1           0        1.829251   -3.052210   -2.490001
 ---------------------------------------------------------------------

 SCF Done:  E(RB-P86) =  -3260.80395394     A.U. after   11 cycles

 The electronic state is 1-A.
 Alpha  occ. eigenvalues -- -481.06298 -61.75503 -55.66626 -55.66626 -55.66625
 Alpha  occ. eigenvalues --  -14.12082  -9.94505  -9.94172  -9.94111  -9.94040
 Alpha  occ. eigenvalues --   -9.90241  -9.90229  -9.90222  -9.90212  -9.89709
 Alpha  occ. eigenvalues --   -9.89703  -9.89672  -9.89639  -9.88367  -9.88355
 Alpha  occ. eigenvalues --   -9.88353  -9.88322  -8.32864  -6.19893  -6.19892
 Alpha  occ. eigenvalues --   -6.19892  -2.40366  -2.40366  -2.40365  -2.40365
 Alpha  occ. eigenvalues --   -2.40365  -0.92041  -0.73967  -0.73848  -0.73607
 Alpha  occ. eigenvalues --   -0.72133  -0.67101  -0.66952  -0.66860  -0.63510
 Alpha  occ. eigenvalues --   -0.61710  -0.60351  -0.59688  -0.59327  -0.55168
 Alpha  occ. eigenvalues --   -0.52699  -0.52450  -0.52186  -0.50639  -0.47019
 Alpha  occ. eigenvalues --   -0.46494  -0.45706  -0.42761  -0.42564  -0.41194
 Alpha  occ. eigenvalues --   -0.41028  -0.39370  -0.38988  -0.38657  -0.38583
 Alpha  occ. eigenvalues --   -0.37907  -0.36624  -0.36505  -0.36244  -0.35715
 Alpha  occ. eigenvalues --   -0.35113  -0.34395  -0.34344  -0.33547  -0.33024
 Alpha  occ. eigenvalues --   -0.32580  -0.32286  -0.30654  -0.30295  -0.30113
 Alpha  occ. eigenvalues --   -0.29791  -0.29463  -0.29321  -0.29182  -0.29022
 Alpha  occ. eigenvalues --   -0.28847  -0.28661  -0.28511  -0.28457  -0.21193
 Alpha  occ. eigenvalues --   -0.21178  -0.20906
 Alpha virt. eigenvalues --    0.00723   0.02177   0.02395   0.02633   0.03232
 Alpha virt. eigenvalues --    0.03853   0.04395   0.04449   0.04881   0.05208
 Alpha virt. eigenvalues --    0.06696   0.07036   0.07411   0.07747   0.07928

 Mulliken charges:
               1
     1  C   -0.457005
     2  C   -0.250480
     3  C   -0.257516
     4  C   -0.342539
     5  N   -0.104404
     6  C   -0.286227
     7  C   -0.262412
     8  C   -0.255700
     9  C   -0.443377
    10  C   -0.264989
    11  C   -0.278036
    12  C   -0.259988
    13  C   -0.460164
    14  C   -0.318837
    15  C   -0.273575
    16  C   -0.258770
    17  C   -0.450176
    18  Br  -0.919361
    19  H    0.153611
    20  H    0.138547
    21  H    0.151878
    22  H    0.144075
    23  H    0.155254
    24  H    0.171034
    25  H    0.199299
    26  H    0.212443
    27  H    0.246153
    28  H    0.245982
    29  H    0.177657
    30  H    0.179234
    31  H    0.179706
    32  H    0.138235
    33  H    0.159114
    34  H    0.144205
    35  H    0.151125
    36  H    0.136941
    37  H    0.175242
    38  H    0.243629
    39  H    0.189984
    40  H    0.168098
    41  H    0.138768
    42  H    0.157531
    43  H    0.154380
    44  H    0.151708
    45  H    0.138939
    46  H    0.234457
    47  H    0.196850
    48  H    0.195098
    49  H    0.175977
    50  H    0.145002
    51  H    0.155281
    52  H    0.150459
    53  H    0.150716
    54  H    0.136946
 Sum of Mulliken charges =  -0.00000

 Dipole moment (field-independent basis, Debye):
    X=            -19.1393    Y=              1.8499    Z=              0.3851  Tot=             19.2323
 Quadrupole moment (field-independent basis, Debye-Ang):
   XX=           -181.3950   YY=           -125.1210   ZZ=           -124.3302
   XY=              3.7412   XZ=              1.4546   YZ=             -0.3046

 Normal termination of Gaussian 16 at Sat Aug 21 10:18:17 2021.
