 Gaussian 16, Revision C.01,

 -------------------------------------------------------------
 #P BP86/TZVP EmpiricalDispersion=GD3 SCRF=(Solvent=Water) Opt
 -------------------------------------------------------------

 -------------------------------------
 Particle #JUZXDNPBRPUIOR-UHFFFAOYSA-N
 -------------------------------------
 Symbolic Z-matrix:
 Charge =  1 Multiplicity = 1

 SCF Done:  E(RB-P86) =  -713.283822593     A.U. after   12 cycles
 SCF Done:  E(RB-P86) =  -713.290265320     A.U. after   11 cycles
 SCF Done:  E(RB-P86) =  -713.290990879     A.U. after    9 cycles
 SCF Done:  E(RB-P86) =  -713.291104175     A.U. after    9 cycles
 SCF Done:  E(RB-P86) =  -713.291125566     A.U. after    8 cycles
 Optimization completed.
    -- Stationary point found.

 1\1\GINC-TCN1658\FOpt\RBP86\TZVP\C5H13Cl1N1(1+)\ELENAA\23-Feb-2021\0\\
 #P BP86/TZVP EmpiricalDispersion=GD3 SCRF=(Solvent=Water) Opt\\Particl
 e #JUZXDNPBRPUIOR-UHFFFAOYSA-N\\1,1\C,-2.1106031819,1.8386730791,-0.32
 97265556\N,-1.1113815988,2.0246535604,0.7903329721\C,-0.9607031081,3.5
 048394246,1.0737694882\C,-1.6132689492,1.3344550428,2.0390527604\C,0.2
 671331797,1.4960263802,0.3883848407\C,0.3003765778,0.006334289,0.06430
 82201\Cl,2.0167197616,-0.4064001122,-0.3838990314\H,-2.2878633072,0.77
 01128154,-0.4847475122\H,-1.707967298,2.2971238631,-1.2394096673\H,-3.

 Normal termination of Gaussian 16 at Tue Feb 23 00:12:12 2021.
 Gaussian 16:  ES64L-G16RevC.01  3-Jul-2019

 ---------------------------------------------------------
 # BP86/TZVP SCRF=COSMORS geom=CHECKPOINT guess=CHECKPOINT
 ---------------------------------------------------------

 -------------------------------------------
 COSMO-file for #JUZXDNPBRPUIOR-UHFFFAOYSA-N
 -------------------------------------------
 Structure from the checkpoint file:  "JUZXDNPBRPUIOR-UHFFFAOYSA-N.chk"
 Charge =  1 Multiplicity = 1

                         Standard orientation:
 ---------------------------------------------------------------------
 Center     Atomic      Atomic             Coordinates (Angstroms)
 Number     Number       Type             X           Y           Z
 ---------------------------------------------------------------------
      1          6           0        1.605217   -0.777836    1.236193
      2          7           0        1.305428    0.040405   -0.000000
      3          6           0        2.187159    1.271884    0.000001
      4          6           0        1.605218   -0.777836   -1.236193
      5          6           0       -0.147194    0.521242   -0.000000
      6          6           0       -1.181449   -0.599307    0.000000
      7         17           0       -2.824006    0.187509   -0.000000
      8          1           0        1.033132   -1.709959    1.202452
      9          1           0        1.332324   -0.191516    2.120259
     10          1           0        2.676373   -1.005459    1.245913
     11          1           0        3.233415    0.948870    0.000001
     12          1           0        1.971262    1.858029   -0.899576
     13          1           0        1.971262    1.858028    0.899577
     14          1           0        1.033133   -1.709959   -1.202453
     15          1           0        1.332325   -0.191514   -2.120259
     16          1           0        2.676374   -1.005458   -1.245913
     17          1           0       -0.265819    1.148496   -0.892549
     18          1           0       -0.265819    1.148497    0.892548
     19          1           0       -1.135780   -1.223720   -0.897815
     20          1           0       -1.135780   -1.223719    0.897816
 ---------------------------------------------------------------------

 SCF Done:  E(RB-P86) =  -713.282136503     A.U. after   11 cycles

 The electronic state is 1-A.
 Alpha  occ. eigenvalues -- -100.75855 -14.14294  -9.97202  -9.96655  -9.94799
 Alpha  occ. eigenvalues --   -9.94798  -9.94773  -9.19598  -7.02208  -7.01030
 Alpha  occ. eigenvalues --   -7.01002  -0.94231  -0.79987  -0.70346  -0.68497
 Alpha  occ. eigenvalues --   -0.68462  -0.61103  -0.55930  -0.48867  -0.48226
 Alpha  occ. eigenvalues --   -0.46949  -0.44118  -0.40444  -0.39122  -0.38537
 Alpha  occ. eigenvalues --   -0.36852  -0.36244  -0.36208  -0.36099  -0.35775
 Alpha  occ. eigenvalues --   -0.34922  -0.27930  -0.27470
 Alpha virt. eigenvalues --   -0.04373   0.01351   0.02613   0.05008   0.05015
 Alpha virt. eigenvalues --    0.05375   0.05634   0.05750   0.07093   0.08195
 Alpha virt. eigenvalues --    0.09752   0.10924   0.11016   0.11932   0.12579

 Mulliken charges:
               1
     1  C   -0.303172
     2  N   -0.217175
     3  C   -0.278921
     4  C   -0.303325
     5  C   -0.186027
     6  C   -0.276431
     7  Cl  -0.138200
     8  H    0.204327
     9  H    0.202258
    10  H    0.199970
    11  H    0.201292
    12  H    0.197649
    13  H    0.197739
    14  H    0.204373
    15  H    0.202298
    16  H    0.199972
    17  H    0.217159
    18  H    0.217212
    19  H    0.229442
    20  H    0.229560
 Sum of Mulliken charges =   1.00000

 Dipole moment (field-independent basis, Debye):
    X=              8.4203    Y=             -0.8097    Z=              0.0012  Tot=              8.4591
 Quadrupole moment (field-independent basis, Debye-Ang):
   XX=            -42.1675   YY=            -43.2901   ZZ=            -43.8342
   XY=              1.6388   XZ=              0.0022   YZ=              0.0009

 Normal termination of Gaussian 16 at Tue Feb 23 00:12:22 2021.
