 Gaussian 16, Revision C.01,

 -------------------------------------------------------------
 #P BP86/TZVP EmpiricalDispersion=GD3 SCRF=(Solvent=Water) Opt
 -------------------------------------------------------------

 -------------------------------------
 Particle #JVTAAEKCZFNVCJ-UHFFFAOYSA-N
 -------------------------------------
 Symbolic Z-matrix:
 Charge =  0 Multiplicity = 1

 SCF Done:  E(RB-P86) =  -343.753928483     A.U. after   13 cycles
 SCF Done:  E(RB-P86) =  -343.765041813     A.U. after   10 cycles
 SCF Done:  E(RB-P86) =  -343.765812973     A.U. after   10 cycles
 SCF Done:  E(RB-P86) =  -343.765781175     A.U. after   10 cycles
 SCF Done:  E(RB-P86) =  -343.766134253     A.U. after   10 cycles
 SCF Done:  E(RB-P86) =  -343.766243074     A.U. after    9 cycles
 SCF Done:  E(RB-P86) =  -343.766477428     A.U. after   11 cycles
 SCF Done:  E(RB-P86) =  -343.766638004     A.U. after   10 cycles
 SCF Done:  E(RB-P86) =  -343.767039992     A.U. after   11 cycles
 SCF Done:  E(RB-P86) =  -343.767201408     A.U. after   11 cycles
 SCF Done:  E(RB-P86) =  -343.767448701     A.U. after   10 cycles
 SCF Done:  E(RB-P86) =  -343.767664881     A.U. after   11 cycles
 SCF Done:  E(RB-P86) =  -343.767737306     A.U. after   10 cycles
 SCF Done:  E(RB-P86) =  -343.767759491     A.U. after   10 cycles
 SCF Done:  E(RB-P86) =  -343.767763404     A.U. after    9 cycles
 SCF Done:  E(RB-P86) =  -343.767764296     A.U. after    8 cycles
 SCF Done:  E(RB-P86) =  -343.767764262     A.U. after    7 cycles
 SCF Done:  E(RB-P86) =  -343.767764359     A.U. after    7 cycles
 Optimization completed.
    -- Stationary point found.
 Normal termination of Gaussian 16 at Mon Feb 22 21:13:31 2021.
 Gaussian 16:  ES64L-G16RevC.01  3-Jul-2019

 ---------------------------------------------------------
 # BP86/TZVP SCRF=COSMORS geom=CHECKPOINT guess=CHECKPOINT
 ---------------------------------------------------------

 -------------------------------------------
 COSMO-file for #JVTAAEKCZFNVCJ-UHFFFAOYSA-N
 -------------------------------------------
 Structure from the checkpoint file:  "JVTAAEKCZFNVCJ-UHFFFAOYSA-N.chk"
 Charge =  0 Multiplicity = 1

                         Standard orientation:
 ---------------------------------------------------------------------
 Center     Atomic      Atomic             Coordinates (Angstroms)
 Number     Number       Type             X           Y           Z
 ---------------------------------------------------------------------
      1          6           0        1.527601   -1.029032    0.344141
      2          6           0        0.689382    0.018106   -0.386366
      3          8           0        1.202012    1.307707   -0.038664
      4          6           0       -0.801798   -0.174255   -0.073071
      5          8           0       -1.384132   -1.239721   -0.193725
      6          8           0       -1.411501    0.975918    0.309689
      7          1           0        1.457250   -0.879268    1.431292
      8          1           0        1.175697   -2.039079    0.099295
      9          1           0        2.578117   -0.932669    0.039366
     10          1           0        0.766970   -0.152233   -1.479591
     11          1           0        0.643351    1.984335   -0.463381
     12          1           0       -2.363525    0.778766    0.446388
 ---------------------------------------------------------------------

 SCF Done:  E(RB-P86) =  -343.766497111     A.U. after   11 cycles

 The electronic state is 1-A.
 Alpha  occ. eigenvalues --  -18.82806 -18.78202 -18.77432 -10.03595  -9.97119
 Alpha  occ. eigenvalues --   -9.89549  -1.02970  -0.95060  -0.94481  -0.70676
 Alpha  occ. eigenvalues --   -0.61667  -0.54494  -0.49663  -0.45248  -0.44714
 Alpha  occ. eigenvalues --   -0.40262  -0.37620  -0.36832  -0.34864  -0.33299
 Alpha  occ. eigenvalues --   -0.32039  -0.29799  -0.27004  -0.23528
 Alpha virt. eigenvalues --   -0.05251   0.01253   0.05086   0.05482   0.07715
 Alpha virt. eigenvalues --    0.10479   0.10648   0.11455   0.12824   0.15275
 Alpha virt. eigenvalues --    0.18407   0.20107   0.21951   0.22563   0.24545

 Mulliken charges:
               1
     1  C   -0.401506
     2  C   -0.060305
     3  O   -0.413610
     4  C    0.214410
     5  O   -0.358428
     6  O   -0.288812
     7  H    0.146311
     8  H    0.152906
     9  H    0.163305
    10  H    0.192081
    11  H    0.315906
    12  H    0.337744
 Sum of Mulliken charges =  -0.00000

 Dipole moment (field-independent basis, Debye):
    X=             -0.9722    Y=              1.6366    Z=             -0.9393  Tot=              2.1227
 Quadrupole moment (field-independent basis, Debye-Ang):
   XX=            -34.1490   YY=            -38.4274   ZZ=            -34.3851
   XY=             -7.8750   XZ=             -2.6524   YZ=             -2.7441

 Normal termination of Gaussian 16 at Mon Feb 22 21:13:37 2021.
