 Gaussian 16, Revision C.01,

 -------------------------------------------------------------
 #P BP86/TZVP EmpiricalDispersion=GD3 SCRF=(Solvent=Water) Opt
 -------------------------------------------------------------

 -------------------------------------
 Particle #KQTIIICEAUMSDG-UHFFFAOYSA-N
 -------------------------------------
 Symbolic Z-matrix:
 Charge =  0 Multiplicity = 1

 SCF Done:  E(RB-P86) =  -685.132737309     A.U. after   15 cycles
 SCF Done:  E(RB-P86) =  -685.156295116     A.U. after   11 cycles
 SCF Done:  E(RB-P86) =  -685.162983881     A.U. after   11 cycles
 SCF Done:  E(RB-P86) =  -685.163210997     A.U. after   11 cycles
 SCF Done:  E(RB-P86) =  -685.163474016     A.U. after   11 cycles
 SCF Done:  E(RB-P86) =  -685.163624131     A.U. after   10 cycles
 SCF Done:  E(RB-P86) =  -685.163736717     A.U. after   10 cycles
 SCF Done:  E(RB-P86) =  -685.163986192     A.U. after   11 cycles
 SCF Done:  E(RB-P86) =  -685.164123049     A.U. after   14 cycles
 SCF Done:  E(RB-P86) =  -685.164545928     A.U. after   11 cycles
 SCF Done:  E(RB-P86) =  -685.167278487     A.U. after   12 cycles
 SCF Done:  E(RB-P86) =  -685.167232150     A.U. after   11 cycles
 SCF Done:  E(RB-P86) =  -685.167325124     A.U. after   10 cycles
 SCF Done:  E(RB-P86) =  -685.167346193     A.U. after   10 cycles
 SCF Done:  E(RB-P86) =  -685.167348371     A.U. after    8 cycles
 SCF Done:  E(RB-P86) =  -685.167348131     A.U. after    8 cycles
 SCF Done:  E(RB-P86) =  -685.167349230     A.U. after    9 cycles
 SCF Done:  E(RB-P86) =  -685.167348968     A.U. after    9 cycles
 SCF Done:  E(RB-P86) =  -685.167349665     A.U. after    8 cycles
 Optimization completed.
    -- Stationary point found.
 Normal termination of Gaussian 16 at Mon Feb 22 21:22:32 2021.
 Gaussian 16:  ES64L-G16RevC.01  3-Jul-2019

 ---------------------------------------------------------
 # BP86/TZVP SCRF=COSMORS geom=CHECKPOINT guess=CHECKPOINT
 ---------------------------------------------------------

 -------------------------------------------
 COSMO-file for #KQTIIICEAUMSDG-UHFFFAOYSA-N
 -------------------------------------------
 Structure from the checkpoint file:  "KQTIIICEAUMSDG-UHFFFAOYSA-N.chk"
 Charge =  0 Multiplicity = 1

                         Standard orientation:
 ---------------------------------------------------------------------
 Center     Atomic      Atomic             Coordinates (Angstroms)
 Number     Number       Type             X           Y           Z
 ---------------------------------------------------------------------
      1          8           0       -2.287019   -1.304544    0.957313
      2          6           0       -2.495419   -0.475609    0.086114
      3          8           0       -3.671728   -0.379950   -0.586477
      4          6           0       -1.519565    0.590183   -0.371304
      5          6           0       -0.087310    0.340269    0.138377
      6          6           0        0.554616   -0.872709   -0.547042
      7          6           0        1.951885   -1.226202   -0.085067
      8          8           0        2.797636   -1.763352   -0.781633
      9          8           0        2.156423   -0.926664    1.227714
     10          6           0        0.767338    1.585984   -0.063572
     11          8           0        1.766872    1.647983   -0.760683
     12          8           0        0.284757    2.641893    0.641544
     13          1           0       -4.277145   -1.065395   -0.229261
     14          1           0       -1.900336    1.550132    0.012072
     15          1           0       -1.548757    0.660267   -1.469382
     16          1           0       -0.141810    0.164543    1.224403
     17          1           0        0.598486   -0.732913   -1.635248
     18          1           0       -0.071371   -1.758553   -0.351493
     19          1           0        3.069398   -1.204879    1.455985
     20          1           0        0.866744    3.412371    0.465660
 ---------------------------------------------------------------------

 SCF Done:  E(RB-P86) =  -685.158247025     A.U. after   11 cycles

 The electronic state is 1-A.
 Alpha  occ. eigenvalues --  -18.82649 -18.82520 -18.82341 -18.77786 -18.77607
 Alpha  occ. eigenvalues --  -18.77120 -10.04048 -10.04025 -10.03746  -9.93812
 Alpha  occ. eigenvalues --   -9.92738  -9.92072  -1.03019  -1.02811  -1.02478
 Alpha  occ. eigenvalues --   -0.94804  -0.94660  -0.94263  -0.76825  -0.69287
 Alpha  occ. eigenvalues --   -0.64514  -0.57883  -0.55813  -0.53301  -0.48396
 Alpha  occ. eigenvalues --   -0.46314  -0.45168  -0.44993  -0.44119  -0.43526
 Alpha  occ. eigenvalues --   -0.42045  -0.41545  -0.40743  -0.37743  -0.36759
 Alpha  occ. eigenvalues --   -0.36585  -0.35719  -0.34403  -0.33577  -0.32309
 Alpha  occ. eigenvalues --   -0.29902  -0.29723  -0.29397  -0.25695  -0.25389
 Alpha  occ. eigenvalues --   -0.25010
 Alpha virt. eigenvalues --   -0.05922  -0.05069  -0.04585   0.01550   0.03156
 Alpha virt. eigenvalues --    0.03426   0.05573   0.06584   0.07460   0.09264
 Alpha virt. eigenvalues --    0.09915   0.12349   0.12841   0.14621   0.15018

 Mulliken charges:
               1
     1  O   -0.346003
     2  C    0.205748
     3  O   -0.276070
     4  C   -0.321483
     5  C   -0.128031
     6  C   -0.324556
     7  C    0.198058
     8  O   -0.357502
     9  O   -0.273090
    10  C    0.182249
    11  O   -0.333941
    12  O   -0.269050
    13  H    0.336330
    14  H    0.229450
    15  H    0.202082
    16  H    0.209694
    17  H    0.183469
    18  H    0.210942
    19  H    0.333481
    20  H    0.338222
 Sum of Mulliken charges =  -0.00000

 Dipole moment (field-independent basis, Debye):
    X=             -4.1433    Y=              2.7285    Z=              1.3189  Tot=              5.1333
 Quadrupole moment (field-independent basis, Debye-Ang):
   XX=            -67.0489   YY=            -64.2785   ZZ=            -72.9535
   XY=              5.0429   XZ=             14.2763   YZ=              0.9469

 Normal termination of Gaussian 16 at Mon Feb 22 21:22:45 2021.
