 Gaussian 16, Revision C.01,

 -------------------------------------------------------------
 #P BP86/TZVP EmpiricalDispersion=GD3 SCRF=(Solvent=Water) Opt
 -------------------------------------------------------------

 -------------------------------------
 Particle #KWIUHFFTVRNATP-UHFFFAOYSA-N
 -------------------------------------
 Symbolic Z-matrix:
 Charge =  0 Multiplicity = 1

 SCF Done:  E(RB-P86) =  -402.495717422     A.U. after   16 cycles
 SCF Done:  E(RB-P86) =  -402.512950809     A.U. after   12 cycles
 SCF Done:  E(RB-P86) =  -402.515564421     A.U. after   12 cycles
 SCF Done:  E(RB-P86) =  -402.513198864     A.U. after   13 cycles
 SCF Done:  E(RB-P86) =  -402.516756480     A.U. after   11 cycles
 SCF Done:  E(RB-P86) =  -402.517150582     A.U. after   11 cycles
 SCF Done:  E(RB-P86) =  -402.517548404     A.U. after   10 cycles
 SCF Done:  E(RB-P86) =  -402.518227739     A.U. after   11 cycles
 SCF Done:  E(RB-P86) =  -402.519222954     A.U. after   11 cycles
 SCF Done:  E(RB-P86) =  -402.520484663     A.U. after   13 cycles
 SCF Done:  E(RB-P86) =  -402.521206805     A.U. after   11 cycles
 SCF Done:  E(RB-P86) =  -402.521523888     A.U. after   11 cycles
 SCF Done:  E(RB-P86) =  -402.521605494     A.U. after   10 cycles
 SCF Done:  E(RB-P86) =  -402.521655173     A.U. after    9 cycles
 SCF Done:  E(RB-P86) =  -402.521656958     A.U. after    8 cycles
 SCF Done:  E(RB-P86) =  -402.521657372     A.U. after    8 cycles
 SCF Done:  E(RB-P86) =  -402.521657450     A.U. after    7 cycles
 Optimization completed.
    -- Stationary point found.
 Normal termination of Gaussian 16 at Mon Feb 22 21:15:15 2021.
 Gaussian 16:  ES64L-G16RevC.01  3-Jul-2019

 ---------------------------------------------------------
 # BP86/TZVP SCRF=COSMORS geom=CHECKPOINT guess=CHECKPOINT
 ---------------------------------------------------------

 -------------------------------------------
 COSMO-file for #KWIUHFFTVRNATP-UHFFFAOYSA-N
 -------------------------------------------
 Structure from the checkpoint file:  "KWIUHFFTVRNATP-UHFFFAOYSA-N.chk"
 Charge =  0 Multiplicity = 1

                         Standard orientation:
 ---------------------------------------------------------------------
 Center     Atomic      Atomic             Coordinates (Angstroms)
 Number     Number       Type             X           Y           Z
 ---------------------------------------------------------------------
      1          6           0        1.088037    0.811271    1.235564
      2          7           0        0.997802   -0.052010   -0.000019
      3          6           0        1.088097    0.811566   -1.235375
      4          6           0        2.145471   -1.031165   -0.000061
      5          6           0       -0.312877   -0.846340   -0.000141
      6          6           0       -1.662389   -0.055441   -0.000005
      7          8           0       -1.648847    1.206568    0.000031
      8          8           0       -2.650092   -0.836760   -0.000010
      9          1           0        2.048199    1.339400    1.220053
     10          1           0        1.029136    0.160963    2.115987
     11          1           0        0.247251    1.510952    1.213873
     12          1           0        2.048209    1.339793   -1.219685
     13          1           0        1.029318    0.161472   -2.115965
     14          1           0        0.247243    1.511173   -1.213571
     15          1           0        2.078836   -1.655289    0.898199
     16          1           0        2.078793   -1.655250   -0.898339
     17          1           0        3.086994   -0.469491   -0.000076
     18          1           0       -0.282512   -1.488639   -0.890090
     19          1           0       -0.282603   -1.488822    0.889683
 ---------------------------------------------------------------------

 SCF Done:  E(RB-P86) =  -402.514338610     A.U. after   11 cycles

 The electronic state is 1-A.
 Alpha  occ. eigenvalues --  -18.72530 -18.72308 -14.12871  -9.99195  -9.94491
 Alpha  occ. eigenvalues --   -9.94180  -9.93616  -9.93614  -0.95359  -0.92666
 Alpha  occ. eigenvalues --   -0.87043  -0.67964  -0.67459  -0.67445  -0.57071
 Alpha  occ. eigenvalues --   -0.49185  -0.46870  -0.46748  -0.43485  -0.40873
 Alpha  occ. eigenvalues --   -0.39128  -0.37797  -0.37119  -0.37089  -0.35375
 Alpha  occ. eigenvalues --   -0.35347  -0.35286  -0.34481  -0.32763  -0.23202
 Alpha  occ. eigenvalues --   -0.21588  -0.20929
 Alpha virt. eigenvalues --   -0.00373   0.00821   0.03846   0.05714   0.05837
 Alpha virt. eigenvalues --    0.06349   0.07506   0.07617   0.08149   0.10149
 Alpha virt. eigenvalues --    0.10851   0.11521   0.12255   0.12523   0.14858

 Mulliken charges:
               1
     1  C   -0.293417
     2  N   -0.177035
     3  C   -0.293379
     4  C   -0.279221
     5  C   -0.305928
     6  C    0.179081
     7  O   -0.470182
     8  O   -0.485485
     9  H    0.187305
    10  H    0.187133
    11  H    0.190725
    12  H    0.187237
    13  H    0.187197
    14  H    0.190714
    15  H    0.191167
    16  H    0.191162
    17  H    0.193000
    18  H    0.210016
    19  H    0.209909
 Sum of Mulliken charges =  -0.00000

 Dipole moment (field-independent basis, Debye):
    X=             15.3273    Y=             -1.7197    Z=             -0.0015  Tot=             15.4235
 Quadrupole moment (field-independent basis, Debye-Ang):
   XX=            -67.0568   YY=            -51.7999   ZZ=            -43.7781
   XY=             -1.0007   XZ=              0.0002   YZ=              0.0006

 Normal termination of Gaussian 16 at Mon Feb 22 21:15:25 2021.
