 Gaussian 16, Revision C.01,

 -------------------------------------------------------------
 #P BP86/TZVP EmpiricalDispersion=GD3 SCRF=(Solvent=Water) Opt
 -------------------------------------------------------------

 -------------------------------------
 Particle #LKDRXBCSQODPBY-AZGQCCRYSA-N
 -------------------------------------
 Symbolic Z-matrix:
 Charge =  0 Multiplicity = 1

 SCF Done:  E(RB-P86) =  -687.470626525     A.U. after   12 cycles
 SCF Done:  E(RB-P86) =  -687.487276563     A.U. after   11 cycles
 SCF Done:  E(RB-P86) =  -687.489249795     A.U. after   10 cycles
 SCF Done:  E(RB-P86) =  -687.489793401     A.U. after   10 cycles
 SCF Done:  E(RB-P86) =  -687.490029468     A.U. after   11 cycles
 SCF Done:  E(RB-P86) =  -687.490141344     A.U. after   10 cycles
 SCF Done:  E(RB-P86) =  -687.490259383     A.U. after   10 cycles
 SCF Done:  E(RB-P86) =  -687.490324144     A.U. after   10 cycles
 SCF Done:  E(RB-P86) =  -687.490365527     A.U. after    9 cycles
 SCF Done:  E(RB-P86) =  -687.490373885     A.U. after    8 cycles
 SCF Done:  E(RB-P86) =  -687.490382061     A.U. after    9 cycles
 SCF Done:  E(RB-P86) =  -687.490383628     A.U. after    8 cycles
 SCF Done:  E(RB-P86) =  -687.490383793     A.U. after    7 cycles
 SCF Done:  E(RB-P86) =  -687.490383871     A.U. after    7 cycles
 SCF Done:  E(RB-P86) =  -687.490383930     A.U. after    7 cycles
 Optimization completed.
    -- Stationary point found.
 Normal termination of Gaussian 16 at Mon Feb 22 21:17:00 2021.
 Gaussian 16:  ES64L-G16RevC.01  3-Jul-2019

 ---------------------------------------------------------
 # BP86/TZVP SCRF=COSMORS geom=CHECKPOINT guess=CHECKPOINT
 ---------------------------------------------------------

 -------------------------------------------
 COSMO-file for #LKDRXBCSQODPBY-AZGQCCRYSA-N
 -------------------------------------------
 Structure from the checkpoint file:  "LKDRXBCSQODPBY-AZGQCCRYSA-N.chk"
 Charge =  0 Multiplicity = 1

                         Standard orientation:
 ---------------------------------------------------------------------
 Center     Atomic      Atomic             Coordinates (Angstroms)
 Number     Number       Type             X           Y           Z
 ---------------------------------------------------------------------
      1          8           0        3.365898   -0.319450   -0.274458
      2          6           0        2.213966    0.353861   -0.811526
      3          6           0        0.982911    0.079776    0.063174
      4          8           0        1.273035    0.351168    1.423694
      5          8           0        0.693386   -1.319451   -0.138639
      6          6           0       -0.434691   -1.781732    0.632177
      7          6           0       -1.722071   -1.033489    0.259325
      8          8           0       -2.110058   -1.256915   -1.107348
      9          6           0       -1.471486    0.471428    0.443638
     10          8           0       -2.559332    1.302703   -0.003146
     11          6           0       -0.244060    0.906951   -0.362938
     12          8           0        0.030486    2.301540   -0.186442
     13          1           0        3.187630   -1.276952   -0.347883
     14          1           0        2.435263    1.428181   -0.790136
     15          1           0        2.002758    0.043356   -1.848509
     16          1           0        2.196042    0.046431    1.556559
     17          1           0       -0.236223   -1.665861    1.712245
     18          1           0       -0.529201   -2.853124    0.406922
     19          1           0       -2.526786   -1.354347    0.949892
     20          1           0       -2.252303   -2.214297   -1.217493
     21          1           0       -1.264296    0.655081    1.512599
     22          1           0       -3.237046    1.314212    0.695524
     23          1           0       -0.430860    0.677500   -1.428485
     24          1           0       -0.839706    2.742291   -0.253626
 ---------------------------------------------------------------------

 SCF Done:  E(RB-P86) =  -687.474240439     A.U. after   11 cycles

 The electronic state is 1-A.
 Alpha  occ. eigenvalues --  -18.78989 -18.78656 -18.78476 -18.78314 -18.77814
 Alpha  occ. eigenvalues --  -18.77641 -10.00875  -9.95792  -9.95727  -9.95590
 Alpha  occ. eigenvalues --   -9.94964  -9.94742  -0.99723  -0.95996  -0.94699
 Alpha  occ. eigenvalues --   -0.94339  -0.93101  -0.92479  -0.71930  -0.70764
 Alpha  occ. eigenvalues --   -0.63542  -0.59350  -0.56812  -0.53021  -0.49828
 Alpha  occ. eigenvalues --   -0.48789  -0.47863  -0.46028  -0.43704  -0.43167
 Alpha  occ. eigenvalues --   -0.42529  -0.41237  -0.39875  -0.38972  -0.37153
 Alpha  occ. eigenvalues --   -0.36329  -0.34811  -0.33041  -0.32074  -0.31138
 Alpha  occ. eigenvalues --   -0.30547  -0.28637  -0.27146  -0.25683  -0.24997
 Alpha  occ. eigenvalues --   -0.24521  -0.23791  -0.22945
 Alpha virt. eigenvalues --    0.00664   0.00987   0.03083   0.03813   0.05198
 Alpha virt. eigenvalues --    0.06751   0.07360   0.07660   0.08453   0.08930
 Alpha virt. eigenvalues --    0.09675   0.10141   0.11316   0.11464   0.12839

 Mulliken charges:
               1
     1  O   -0.401840
     2  C   -0.119461
     3  C   -0.077901
     4  O   -0.316124
     5  O   -0.214933
     6  C   -0.188284
     7  C   -0.096315
     8  O   -0.387633
     9  C   -0.082227
    10  O   -0.415491
    11  C   -0.071843
    12  O   -0.383340
    13  H    0.312719
    14  H    0.163708
    15  H    0.154861
    16  H    0.302470
    17  H    0.153187
    18  H    0.185178
    19  H    0.179692
    20  H    0.311098
    21  H    0.195071
    22  H    0.323866
    23  H    0.170557
    24  H    0.302988
 Sum of Mulliken charges =  -0.00000

 Dipole moment (field-independent basis, Debye):
    X=             -3.2413    Y=             -4.3494    Z=              2.1272  Tot=              5.8265
 Quadrupole moment (field-independent basis, Debye-Ang):
   XX=            -70.0740   YY=            -64.3841   ZZ=            -71.2646
   XY=             -1.4503   XZ=             -8.6608   YZ=             -0.7627

 Normal termination of Gaussian 16 at Mon Feb 22 21:17:17 2021.
