 Gaussian 16, Revision C.01,

 -------------------------------------------------------------
 #P BP86/TZVP EmpiricalDispersion=GD3 SCRF=(Solvent=Water) Opt
 -------------------------------------------------------------

 -------------------------------------
 Particle #LSEFCHWGJNHZNT-UHFFFAOYSA-M
 -------------------------------------
 Symbolic Z-matrix:
 Charge =  0 Multiplicity = 1

 SCF Done:  E(RB-P86) =  -3650.98286591     A.U. after   13 cycles
 SCF Done:  E(RB-P86) =  -3650.98346550     A.U. after   10 cycles
 SCF Done:  E(RB-P86) =  -3650.98343133     A.U. after    8 cycles
 SCF Done:  E(RB-P86) =  -3650.98344730     A.U. after    8 cycles
 SCF Done:  E(RB-P86) =  -3650.98345558     A.U. after    8 cycles
 SCF Done:  E(RB-P86) =  -3650.98344820     A.U. after    8 cycles
 SCF Done:  E(RB-P86) =  -3650.98345681     A.U. after    8 cycles
 SCF Done:  E(RB-P86) =  -3650.98346387     A.U. after    8 cycles
 SCF Done:  E(RB-P86) =  -3650.98346241     A.U. after    6 cycles
 Optimization completed.
    -- Stationary point found.
 Normal termination of Gaussian 16 at Sat Aug 21 12:04:57 2021.
 Gaussian 16:  ES64L-G16RevC.01  3-Jul-2019

 ---------------------------------------------------------
 # BP86/TZVP SCRF=COSMORS geom=CHECKPOINT guess=CHECKPOINT
 ---------------------------------------------------------

 -------------------------------------------
 COSMO-file for #LSEFCHWGJNHZNT-UHFFFAOYSA-M
 -------------------------------------------
 Structure from the checkpoint file:  "LSEFCHWGJNHZNT-UHFFFAOYSA-M.chk"
 Charge =  0 Multiplicity = 1

                         Standard orientation:
 ---------------------------------------------------------------------
 Center     Atomic      Atomic             Coordinates (Angstroms)
 Number     Number       Type             X           Y           Z
 ---------------------------------------------------------------------
      1          6           0        3.425930   -0.057189    0.400628
      2         15           0        1.615305   -0.026457    0.186296
      3          6           0        1.172993   -0.814429   -1.395234
      4          6           0       -0.089524   -1.415339   -1.533763
      5          6           0       -0.450466   -1.974654   -2.763303
      6          6           0        0.443059   -1.947025   -3.840277
      7          6           0        1.700485   -1.345229   -3.697436
      8          6           0        2.070192   -0.772072   -2.477733
      9          6           0        1.028395    1.698164    0.183307
     10          6           0       -0.150555    2.022260   -0.508925
     11          6           0       -0.628930    3.335447   -0.469982
     12          6           0        0.067121    4.318773    0.242255
     13          6           0        1.241451    3.990323    0.932635
     14          6           0        1.725510    2.679620    0.911021
     15          6           0        0.820274   -0.931417    1.552932
     16          6           0       -0.478260   -0.573812    1.952156
     17          6           0       -1.108225   -1.302250    2.965755
     18          6           0       -0.445708   -2.368709    3.583739
     19          6           0        0.848990   -2.722634    3.180974
     20          6           0        1.486564   -2.010432    2.161828
     21         35           0       -3.332917    0.051249   -0.368441
     22          1           0        3.798228   -1.065074    0.180373
     23          1           0        3.883439    0.664334   -0.287315
     24          1           0        3.671389    0.209967    1.435789
     25          1           0       -0.806269   -1.421033   -0.709084
     26          1           0       -1.435138   -2.432255   -2.874753
     27          1           0        0.159193   -2.391832   -4.796133
     28          1           0        2.396960   -1.321086   -4.537438
     29          1           0        3.049707   -0.300842   -2.381214
     30          1           0       -0.717111    1.259268   -1.047640
     31          1           0       -1.550077    3.585438   -0.999421
     32          1           0       -0.306958    5.344265    0.263708
     33          1           0        1.783872    4.755991    1.490055
     34          1           0        2.638114    2.435978    1.457090
     35          1           0       -1.015970    0.240108    1.460819
     36          1           0       -2.121264   -1.031643    3.268670
     37          1           0       -0.939519   -2.929740    4.379565
     38          1           0        1.365582   -3.555662    3.660883
     39          1           0        2.492578   -2.299428    1.853565
 ---------------------------------------------------------------------

 SCF Done:  E(RB-P86) =  -3650.94594777     A.U. after   11 cycles

 The electronic state is 1-A.
 Alpha  occ. eigenvalues -- -481.05975 -76.47723 -61.75187 -55.66312 -55.66311
 Alpha  occ. eigenvalues --  -55.66305  -9.94198  -9.94193  -9.94191  -9.92677
 Alpha  occ. eigenvalues --   -9.92642  -9.92639  -9.92635  -9.92365  -9.92357
 Alpha  occ. eigenvalues --   -9.92355  -9.91856  -9.91853  -9.91846  -9.91734
 Alpha  occ. eigenvalues --   -9.91730  -9.91725  -9.91657  -9.91655  -9.91644
 Alpha  occ. eigenvalues --   -8.32550  -6.40765  -6.19586  -6.19586  -6.19566
 Alpha  occ. eigenvalues --   -4.62464  -4.62454  -4.62453  -2.40062  -2.40062
 Alpha  occ. eigenvalues --   -2.40049  -2.40048  -2.40044  -0.81305  -0.79931
 Alpha  occ. eigenvalues --   -0.79931  -0.74600  -0.69913  -0.69806  -0.69801
 Alpha  occ. eigenvalues --   -0.69453  -0.69449  -0.67617  -0.61390  -0.60886
 Alpha  occ. eigenvalues --   -0.56646  -0.56635  -0.56626  -0.55851  -0.55847
 Alpha  occ. eigenvalues --   -0.52454  -0.48781  -0.48775  -0.46559  -0.43201
 Alpha  occ. eigenvalues --   -0.43020  -0.43015  -0.41795  -0.41785  -0.41040
 Alpha  occ. eigenvalues --   -0.40659  -0.40653  -0.39436  -0.39071  -0.39056
 Alpha  occ. eigenvalues --   -0.37219  -0.37204  -0.37184  -0.35319  -0.35310
 Alpha  occ. eigenvalues --   -0.34677  -0.33117  -0.32143  -0.32137  -0.31729
 Alpha  occ. eigenvalues --   -0.31155  -0.31147  -0.25972  -0.25956  -0.25209
 Alpha  occ. eigenvalues --   -0.24992  -0.24988  -0.24774  -0.20911  -0.20904
 Alpha  occ. eigenvalues --   -0.20609
 Alpha virt. eigenvalues --   -0.08501  -0.08474  -0.07393  -0.06421  -0.05908
 Alpha virt. eigenvalues --   -0.05883   0.00935   0.01629   0.01661   0.01767
 Alpha virt. eigenvalues --    0.04858   0.04862   0.04919   0.05943   0.06882

 Mulliken charges:
               1
     1  C   -0.544719
     2  P    0.391125
     3  C   -0.222842
     4  C   -0.015072
     5  C   -0.150190
     6  C   -0.110772
     7  C   -0.135189
     8  C   -0.050145
     9  C   -0.227324
    10  C   -0.011829
    11  C   -0.151521
    12  C   -0.110687
    13  C   -0.135220
    14  C   -0.048757
    15  C   -0.224060
    16  C   -0.013156
    17  C   -0.151623
    18  C   -0.110780
    19  C   -0.135576
    20  C   -0.048320
    21  Br  -0.937165
    22  H    0.229131
    23  H    0.229009
    24  H    0.228867
    25  H    0.168010
    26  H    0.150862
    27  H    0.159352
    28  H    0.158332
    29  H    0.181507
    30  H    0.169012
    31  H    0.150916
    32  H    0.159421
    33  H    0.158415
    34  H    0.181739
    35  H    0.169757
    36  H    0.150830
    37  H    0.159469
    38  H    0.158289
    39  H    0.180903
 Sum of Mulliken charges =  -0.00000

 Dipole moment (field-independent basis, Debye):
    X=             21.8272    Y=             -0.3348    Z=              2.4360  Tot=             21.9653
 Quadrupole moment (field-independent basis, Debye-Ang):
   XX=           -164.1817   YY=           -122.2588   ZZ=           -122.9572
   XY=              0.5654   XZ=             -4.6825   YZ=              0.1266

 Normal termination of Gaussian 16 at Sat Aug 21 12:06:16 2021.
