 Gaussian 16, Revision C.01,

 -------------------------------------------------------------
 #P BP86/TZVP EmpiricalDispersion=GD3 SCRF=(Solvent=Water) Opt
 -------------------------------------------------------------

 -------------------------------------
 Particle #LVHBHZANLOWSRM-UHFFFAOYSA-N
 -------------------------------------
 Symbolic Z-matrix:
 Charge =  0 Multiplicity = 1

 SCF Done:  E(RB-P86) =  -495.230236068     A.U. after   15 cycles
 SCF Done:  E(RB-P86) =  -495.262571879     A.U. after   13 cycles
 SCF Done:  E(RB-P86) =  -495.271292292     A.U. after   12 cycles
 SCF Done:  E(RB-P86) =  -495.271856236     A.U. after   11 cycles
 SCF Done:  E(RB-P86) =  -495.272060200     A.U. after   11 cycles
 SCF Done:  E(RB-P86) =  -495.272376915     A.U. after   10 cycles
 SCF Done:  E(RB-P86) =  -495.272518644     A.U. after   11 cycles
 SCF Done:  E(RB-P86) =  -495.272550176     A.U. after   11 cycles
 SCF Done:  E(RB-P86) =  -495.272564382     A.U. after   10 cycles
 SCF Done:  E(RB-P86) =  -495.272573660     A.U. after    9 cycles
 SCF Done:  E(RB-P86) =  -495.272578302     A.U. after    9 cycles
 SCF Done:  E(RB-P86) =  -495.272578652     A.U. after    8 cycles
 SCF Done:  E(RB-P86) =  -495.272578745     A.U. after    8 cycles
 Optimization completed.
    -- Stationary point found.
 Normal termination of Gaussian 16 at Mon Feb 22 21:14:42 2021.
 Gaussian 16:  ES64L-G16RevC.01  3-Jul-2019

 ---------------------------------------------------------
 # BP86/TZVP SCRF=COSMORS geom=CHECKPOINT guess=CHECKPOINT
 ---------------------------------------------------------

 -------------------------------------------
 COSMO-file for #LVHBHZANLOWSRM-UHFFFAOYSA-N
 -------------------------------------------
 Structure from the checkpoint file:  "LVHBHZANLOWSRM-UHFFFAOYSA-N.chk"
 Charge =  0 Multiplicity = 1

                         Standard orientation:
 ---------------------------------------------------------------------
 Center     Atomic      Atomic             Coordinates (Angstroms)
 Number     Number       Type             X           Y           Z
 ---------------------------------------------------------------------
      1          6           0       -1.377843    1.857935    0.062782
      2          6           0       -0.696233    0.747988   -0.265387
      3          6           0        0.709580    0.764358   -0.813834
      4          6           0        1.742387    0.027479    0.026051
      5          8           0        2.732666   -0.523479   -0.424634
      6          8           0        1.469793    0.096019    1.356221
      7          6           0       -1.289251   -0.614982   -0.130656
      8          8           0       -0.679281   -1.641069   -0.411922
      9          8           0       -2.566774   -0.622858    0.334660
     10          1           0       -0.925301    2.846153   -0.040261
     11          1           0       -2.399519    1.808801    0.440124
     12          1           0        0.745707    0.313207   -1.815455
     13          1           0        1.060046    1.804204   -0.909464
     14          1           0        2.187026   -0.378076    1.829774
     15          1           0       -2.851026   -1.559862    0.386941
 ---------------------------------------------------------------------

 SCF Done:  E(RB-P86) =  -495.268684987     A.U. after   12 cycles

 The electronic state is 1-A.
 Alpha  occ. eigenvalues --  -18.82457 -18.82409 -18.77540 -18.77254 -10.03944
 Alpha  occ. eigenvalues --  -10.03908  -9.93795  -9.92503  -9.91911  -1.02840
 Alpha  occ. eigenvalues --   -1.02565  -0.94481  -0.94415  -0.76258  -0.67771
 Alpha  occ. eigenvalues --   -0.60779  -0.57073  -0.52644  -0.47108  -0.44834
 Alpha  occ. eigenvalues --   -0.44514  -0.43143  -0.42438  -0.41091  -0.39365
 Alpha  occ. eigenvalues --   -0.36885  -0.36224  -0.34877  -0.34377  -0.29800
 Alpha  occ. eigenvalues --   -0.29430  -0.27013  -0.25559  -0.24645
 Alpha virt. eigenvalues --   -0.09937  -0.04936   0.01324   0.02112   0.03528
 Alpha virt. eigenvalues --    0.05930   0.07890   0.08910   0.09857   0.12576
 Alpha virt. eigenvalues --    0.13441   0.14547   0.15863   0.16707   0.17634

 Mulliken charges:
               1
     1  C   -0.194999
     2  C   -0.096164
     3  C   -0.294594
     4  C    0.196735
     5  O   -0.356973
     6  O   -0.267762
     7  C    0.222811
     8  O   -0.353753
     9  O   -0.278677
    10  H    0.167514
    11  H    0.171294
    12  H    0.201053
    13  H    0.211411
    14  H    0.333712
    15  H    0.338392
 Sum of Mulliken charges =  -0.00000

 Dipole moment (field-independent basis, Debye):
    X=             -3.0852    Y=              3.1598    Z=              1.7718  Tot=              4.7583
 Quadrupole moment (field-independent basis, Debye-Ang):
   XX=            -52.3848   YY=            -48.4256   ZZ=            -49.5220
   XY=              5.8665   XZ=              5.0951   YZ=             -5.3369

 Normal termination of Gaussian 16 at Mon Feb 22 21:14:52 2021.
