 Gaussian 16, Revision C.01,

 -------------------------------------------------------------
 #P BP86/TZVP EmpiricalDispersion=GD3 SCRF=(Solvent=Water) Opt
 -------------------------------------------------------------

 -------------------------------------
 Particle #LYCAIKOWRPUZTN-UHFFFAOYSA-N
 -------------------------------------
 Symbolic Z-matrix:
 Charge =  0 Multiplicity = 1

 SCF Done:  E(RB-P86) =  -230.350942310     A.U. after   10 cycles
 SCF Done:  E(RB-P86) =  -230.354014329     A.U. after    8 cycles
 SCF Done:  E(RB-P86) =  -230.354099478     A.U. after    7 cycles
 SCF Done:  E(RB-P86) =  -230.354101107     A.U. after    6 cycles
 Optimization completed.
    -- Stationary point found.
 Normal termination of Gaussian 16 at Mon Feb 22 21:13:04 2021.
 Gaussian 16:  ES64L-G16RevC.01  3-Jul-2019

 ---------------------------------------------------------
 # BP86/TZVP SCRF=COSMORS geom=CHECKPOINT guess=CHECKPOINT
 ---------------------------------------------------------

 -------------------------------------------
 COSMO-file for #LYCAIKOWRPUZTN-UHFFFAOYSA-N
 -------------------------------------------
 Structure from the checkpoint file:  "LYCAIKOWRPUZTN-UHFFFAOYSA-N.chk"
 Charge =  0 Multiplicity = 1

                         Standard orientation:
 ---------------------------------------------------------------------
 Center     Atomic      Atomic             Coordinates (Angstroms)
 Number     Number       Type             X           Y           Z
 ---------------------------------------------------------------------
      1          8           0       -1.796334   -0.264114   -0.000000
      2          6           0       -0.574808    0.498848   -0.000000
      3          6           0        0.574808   -0.498847    0.000000
      4          8           0        1.796334    0.264114    0.000000
      5          1           0       -2.537150    0.366557    0.000003
      6          1           0       -0.501145    1.142421   -0.896250
      7          1           0       -0.501146    1.142421    0.896250
      8          1           0        0.501144   -1.142420    0.896250
      9          1           0        0.501145   -1.142420   -0.896250
     10          1           0        2.537150   -0.366557   -0.000000
 ---------------------------------------------------------------------

 SCF Done:  E(RB-P86) =  -230.355019655     A.U. after    8 cycles

 The electronic state is 1-A.
 Alpha  occ. eigenvalues --  -18.77406 -18.77406  -9.94170  -9.94159  -0.94221
 Alpha  occ. eigenvalues --   -0.93229  -0.67385  -0.54757  -0.48762  -0.43340
 Alpha  occ. eigenvalues --   -0.43197  -0.37549  -0.34973  -0.32172  -0.29145
 Alpha  occ. eigenvalues --   -0.23768  -0.23551
 Alpha virt. eigenvalues --    0.01015   0.03141   0.07636   0.07979   0.08441
 Alpha virt. eigenvalues --    0.12869   0.12907   0.13372   0.16981   0.21423
 Alpha virt. eigenvalues --    0.25523   0.26698   0.26779   0.29271   0.32446

 Mulliken charges:
               1
     1  O   -0.450909
     2  C   -0.128108
     3  C   -0.128036
     4  O   -0.450912
     5  H    0.319264
     6  H    0.129898
     7  H    0.129830
     8  H    0.129831
     9  H    0.129882
    10  H    0.319259
 Sum of Mulliken charges =  -0.00000

 Dipole moment (field-independent basis, Debye):
    X=             -0.0000    Y=             -0.0000    Z=             -0.0005  Tot=              0.0005
 Quadrupole moment (field-independent basis, Debye-Ang):
   XX=            -19.6820   YY=            -25.3980   ZZ=            -25.7967
   XY=             -8.6315   XZ=              0.0004   YZ=              0.0001

 Normal termination of Gaussian 16 at Mon Feb 22 21:13:07 2021.
