 Gaussian 16, Revision C.01,

 -------------------------------------------------------------
 #P BP86/TZVP EmpiricalDispersion=GD3 SCRF=(Solvent=Water) Opt
 -------------------------------------------------------------

 -------------------------------------
 Particle #MGJKQDOBUOMPEZ-UHFFFAOYSA-N
 -------------------------------------
 Symbolic Z-matrix:
 Charge =  0 Multiplicity = 1

 SCF Done:  E(RB-P86) =  -304.008321804     A.U. after   12 cycles
 SCF Done:  E(RB-P86) =  -304.015093855     A.U. after   10 cycles
 SCF Done:  E(RB-P86) =  -304.015262992     A.U. after    9 cycles
 SCF Done:  E(RB-P86) =  -304.015277383     A.U. after    8 cycles
 SCF Done:  E(RB-P86) =  -304.015279123     A.U. after    7 cycles
 SCF Done:  E(RB-P86) =  -304.015280084     A.U. after    7 cycles
 SCF Done:  E(RB-P86) =  -304.015282218     A.U. after    7 cycles
 SCF Done:  E(RB-P86) =  -304.015292262     A.U. after    9 cycles
 SCF Done:  E(RB-P86) =  -304.015299442     A.U. after   10 cycles
 SCF Done:  E(RB-P86) =  -304.015325733     A.U. after    9 cycles
 SCF Done:  E(RB-P86) =  -304.015962626     A.U. after    8 cycles
 SCF Done:  E(RB-P86) =  -304.015972832     A.U. after    9 cycles
 SCF Done:  E(RB-P86) =  -304.015973695     A.U. after    8 cycles
 SCF Done:  E(RB-P86) =  -304.015974556     A.U. after    8 cycles
 SCF Done:  E(RB-P86) =  -304.015975402     A.U. after    7 cycles
 SCF Done:  E(RB-P86) =  -304.015975909     A.U. after    8 cycles
 SCF Done:  E(RB-P86) =  -304.015976207     A.U. after    7 cycles
 SCF Done:  E(RB-P86) =  -304.015976466     A.U. after    8 cycles
 SCF Done:  E(RB-P86) =  -304.015976612     A.U. after    7 cycles
 Optimization completed.
    -- Stationary point found.
 Normal termination of Gaussian 16 at Mon Feb 22 21:16:04 2021.
 Gaussian 16:  ES64L-G16RevC.01  3-Jul-2019

 ---------------------------------------------------------
 # BP86/TZVP SCRF=COSMORS geom=CHECKPOINT guess=CHECKPOINT
 ---------------------------------------------------------

 -------------------------------------------
 COSMO-file for #MGJKQDOBUOMPEZ-UHFFFAOYSA-N
 -------------------------------------------
 Structure from the checkpoint file:  "MGJKQDOBUOMPEZ-UHFFFAOYSA-N.chk"
 Charge =  0 Multiplicity = 1

                         Standard orientation:
 ---------------------------------------------------------------------
 Center     Atomic      Atomic             Coordinates (Angstroms)
 Number     Number       Type             X           Y           Z
 ---------------------------------------------------------------------
      1          6           0        2.458711    0.006765   -0.025853
      2          7           0        1.161866   -0.649144    0.106017
      3          6           0        0.000017    0.089648    0.000351
      4          8           0       -0.000000    1.335242    0.000340
      5          7           0       -1.161712   -0.648986   -0.104756
      6          6           0       -2.458806    0.006715    0.024666
      7          1           0        2.499162    0.879013    0.639304
      8          1           0        3.242212   -0.700679    0.273787
      9          1           0        2.659562    0.348323   -1.056423
     10          1           0        1.124655   -1.633140   -0.148649
     11          1           0       -1.124668   -1.633592    0.147376
     12          1           0       -2.660650    0.350024    1.054451
     13          1           0       -3.241806   -0.701546   -0.274323
     14          1           0       -2.499073    0.877808   -0.642054
 ---------------------------------------------------------------------

 SCF Done:  E(RB-P86) =  -304.014493949     A.U. after   10 cycles

 The electronic state is 1-A.
 Alpha  occ. eigenvalues --  -18.73407 -14.01845 -14.01841 -10.01086  -9.92070
 Alpha  occ. eigenvalues --   -9.92065  -0.95852  -0.84757  -0.82342  -0.65590
 Alpha  occ. eigenvalues --   -0.60224  -0.52775  -0.50810  -0.44279  -0.41284
 Alpha  occ. eigenvalues --   -0.38737  -0.38672  -0.38043  -0.34337  -0.34219
 Alpha  occ. eigenvalues --   -0.33635  -0.23922  -0.22563  -0.20786
 Alpha virt. eigenvalues --    0.00526   0.02276   0.05178   0.05295   0.08181
 Alpha virt. eigenvalues --    0.08456   0.10992   0.11279   0.11596   0.12251
 Alpha virt. eigenvalues --    0.14270   0.15408   0.18894   0.18988   0.20643

 Mulliken charges:
               1
     1  C   -0.322569
     2  N   -0.300307
     3  C    0.265443
     4  O   -0.502446
     5  N   -0.300449
     6  C   -0.322609
     7  H    0.149908
     8  H    0.159761
     9  H    0.148981
    10  H    0.282633
    11  H    0.282875
    12  H    0.149077
    13  H    0.159787
    14  H    0.149915
 Sum of Mulliken charges =  -0.00000

 Dipole moment (field-independent basis, Debye):
    X=             -0.0034    Y=             -5.9110    Z=             -0.0081  Tot=              5.9110
 Quadrupole moment (field-independent basis, Debye-Ang):
   XX=            -27.6692   YY=            -37.4565   ZZ=            -38.7577
   XY=              0.0068   XZ=             -1.1639   YZ=              0.0071

 Normal termination of Gaussian 16 at Mon Feb 22 21:16:10 2021.
