 Gaussian 16, Revision C.01,

 -------------------------------------------------------------
 #P BP86/TZVP EmpiricalDispersion=GD3 SCRF=(Solvent=Water) Opt
 -------------------------------------------------------------

 -------------------------------------
 Particle #MSIGGUSMCUUDGY-UHFFFAOYSA-M
 -------------------------------------
 Symbolic Z-matrix:
 Charge =  0 Multiplicity = 1

 SCF Done:  E(RB-P86) =  -828.632147123     A.U. after   12 cycles
 SCF Done:  E(RB-P86) =  -828.639893792     A.U. after   10 cycles
 SCF Done:  E(RB-P86) =  -828.641385480     A.U. after   10 cycles
 SCF Done:  E(RB-P86) =  -828.641949502     A.U. after    9 cycles
 SCF Done:  E(RB-P86) =  -828.642662334     A.U. after   10 cycles
 SCF Done:  E(RB-P86) =  -828.642997468     A.U. after    9 cycles
 SCF Done:  E(RB-P86) =  -828.643299768     A.U. after    9 cycles
 SCF Done:  E(RB-P86) =  -828.643409820     A.U. after    9 cycles
 SCF Done:  E(RB-P86) =  -828.643445506     A.U. after    8 cycles
 SCF Done:  E(RB-P86) =  -828.643470990     A.U. after    8 cycles
 SCF Done:  E(RB-P86) =  -828.643511226     A.U. after    8 cycles
 SCF Done:  E(RB-P86) =  -828.643509894     A.U. after    7 cycles
 SCF Done:  E(RB-P86) =  -828.643510526     A.U. after    7 cycles
 SCF Done:  E(RB-P86) =  -828.643510077     A.U. after    6 cycles
 SCF Done:  E(RB-P86) =  -828.643511355     A.U. after    7 cycles
 SCF Done:  E(RB-P86) =  -828.643512635     A.U. after    7 cycles
 SCF Done:  E(RB-P86) =  -828.643513690     A.U. after    6 cycles
 SCF Done:  E(RB-P86) =  -828.643523174     A.U. after    8 cycles
 SCF Done:  E(RB-P86) =  -828.643515459     A.U. after    8 cycles
 Optimization completed.
    -- Stationary point found.
 Normal termination of Gaussian 16 at Sat Aug 21 09:40:24 2021.
 Gaussian 16:  ES64L-G16RevC.01  3-Jul-2019

 ---------------------------------------------------------
 # BP86/TZVP SCRF=COSMORS geom=CHECKPOINT guess=CHECKPOINT
 ---------------------------------------------------------

 -------------------------------------------
 COSMO-file for #MSIGGUSMCUUDGY-UHFFFAOYSA-M
 -------------------------------------------
 Structure from the checkpoint file:  "MSIGGUSMCUUDGY-UHFFFAOYSA-M.chk"
 Charge =  0 Multiplicity = 1

                         Standard orientation:
 ---------------------------------------------------------------------
 Center     Atomic      Atomic             Coordinates (Angstroms)
 Number     Number       Type             X           Y           Z
 ---------------------------------------------------------------------
      1          6           0        4.013968   -0.914534   -0.125473
      2          8           0        3.515555    0.372961    0.276858
      3          6           0        2.154729    0.343455    0.710611
      4          6           0        1.237434    0.464619   -0.517676
      5          7           0       -0.243036    0.223972   -0.258140
      6          6           0       -1.007584    0.549312   -1.523336
      7          6           0       -0.508317   -1.221399    0.098015
      8          6           0       -0.752903    1.112216    0.853549
      9         17           0       -4.039281   -0.342226    0.261276
     10          1           0        3.462864   -1.330245   -0.987726
     11          1           0        3.966079   -1.635438    0.710460
     12          1           0        5.061053   -0.765079   -0.417002
     13          1           0        2.024596    1.205933    1.378115
     14          1           0        1.947501   -0.575890    1.286936
     15          1           0        1.323131    1.473582   -0.941160
     16          1           0        1.532914   -0.261756   -1.285582
     17          1           0       -0.628599   -0.085925   -2.332098
     18          1           0       -0.847762    1.606232   -1.764650
     19          1           0       -2.070822    0.348781   -1.328233
     20          1           0        0.010670   -1.465952    1.029917
     21          1           0       -1.594757   -1.332487    0.224336
     22          1           0       -0.140427   -1.853260   -0.718207
     23          1           0       -0.514298    2.152722    0.605528
     24          1           0       -0.272147    0.823812    1.794234
     25          1           0       -1.839375    0.959315    0.921418
 ---------------------------------------------------------------------

 SCF Done:  E(RB-P86) =  -828.628005881     A.U. after   10 cycles

 The electronic state is 1-A.
 Alpha  occ. eigenvalues -- -100.64586 -18.78878 -14.13353  -9.95652  -9.95186
 Alpha  occ. eigenvalues --   -9.93927  -9.93876  -9.93865  -9.93771  -9.08461
 Alpha  occ. eigenvalues --   -6.90278  -6.90273  -6.90272  -0.95824  -0.93361
 Alpha  occ. eigenvalues --   -0.71206  -0.67716  -0.67626  -0.64363  -0.63462
 Alpha  occ. eigenvalues --   -0.58536  -0.54706  -0.48398  -0.47398  -0.46389
 Alpha  occ. eigenvalues --   -0.44274  -0.43336  -0.40579  -0.39010  -0.38517
 Alpha  occ. eigenvalues --   -0.36252  -0.35814  -0.35614  -0.35557  -0.35399
 Alpha  occ. eigenvalues --   -0.34815  -0.32521  -0.28839  -0.23132  -0.21527
 Alpha  occ. eigenvalues --   -0.21521  -0.21282
 Alpha virt. eigenvalues --    0.00202   0.01992   0.04397   0.04490   0.05081
 Alpha virt. eigenvalues --    0.05840   0.06076   0.06881   0.07696   0.08699
 Alpha virt. eigenvalues --    0.09676   0.09996   0.10197   0.10533   0.11411

 Mulliken charges:
               1
     1  C   -0.239204
     2  O   -0.309220
     3  C   -0.179951
     4  C   -0.217966
     5  N   -0.201760
     6  C   -0.254698
     7  C   -0.262651
     8  C   -0.279188
     9  Cl  -0.878252
    10  H    0.137993
    11  H    0.139799
    12  H    0.157829
    13  H    0.189188
    14  H    0.174909
    15  H    0.199585
    16  H    0.220600
    17  H    0.189221
    18  H    0.190287
    19  H    0.147404
    20  H    0.191461
    21  H    0.146344
    22  H    0.191116
    23  H    0.196678
    24  H    0.203052
    25  H    0.147425
 Sum of Mulliken charges =  -0.00000

 Dipole moment (field-independent basis, Debye):
    X=             16.3553    Y=              0.8626    Z=             -2.3008  Tot=             16.5388
 Quadrupole moment (field-independent basis, Debye-Ang):
   XX=           -136.3161   YY=            -60.9194   ZZ=            -60.7281
   XY=            -13.5607   XZ=              3.9196   YZ=              0.3990

 Normal termination of Gaussian 16 at Sat Aug 21 09:40:40 2021.
