 Gaussian 16, Revision C.01,

 -------------------------------------------------------------
 #P BP86/TZVP EmpiricalDispersion=GD3 SCRF=(Solvent=Water) Opt
 -------------------------------------------------------------

 -------------------------------------
 Particle #MTCFGRXMJLQNBG-UWTATZPHSA-N
 -------------------------------------
 Symbolic Z-matrix:
 Charge =  0 Multiplicity = 1

 SCF Done:  E(RB-P86) =  -399.116788661     A.U. after   16 cycles
 SCF Done:  E(RB-P86) =  -399.134638095     A.U. after   12 cycles
 SCF Done:  E(RB-P86) =  -399.137325522     A.U. after   12 cycles
 SCF Done:  E(RB-P86) =  -399.133245206     A.U. after   13 cycles
 SCF Done:  E(RB-P86) =  -399.139279656     A.U. after   11 cycles
 SCF Done:  E(RB-P86) =  -399.140129128     A.U. after   11 cycles
 SCF Done:  E(RB-P86) =  -399.141025810     A.U. after   11 cycles
 SCF Done:  E(RB-P86) =  -399.141382678     A.U. after   13 cycles
 SCF Done:  E(RB-P86) =  -399.142081968     A.U. after   10 cycles
 SCF Done:  E(RB-P86) =  -399.142247376     A.U. after   11 cycles
 SCF Done:  E(RB-P86) =  -399.142432374     A.U. after    8 cycles
 SCF Done:  E(RB-P86) =  -399.142434831     A.U. after    9 cycles
 SCF Done:  E(RB-P86) =  -399.142436808     A.U. after    9 cycles
 SCF Done:  E(RB-P86) =  -399.142436997     A.U. after    8 cycles
 SCF Done:  E(RB-P86) =  -399.142437132     A.U. after    8 cycles
 SCF Done:  E(RB-P86) =  -399.142437851     A.U. after    8 cycles
 SCF Done:  E(RB-P86) =  -399.142438962     A.U. after    9 cycles
 SCF Done:  E(RB-P86) =  -399.142439296     A.U. after    8 cycles
 SCF Done:  E(RB-P86) =  -399.142439282     A.U. after    8 cycles
 Optimization completed.
    -- Stationary point found.
 Normal termination of Gaussian 16 at Mon Feb 22 21:17:20 2021.
 Gaussian 16:  ES64L-G16RevC.01  3-Jul-2019

 ---------------------------------------------------------
 # BP86/TZVP SCRF=COSMORS geom=CHECKPOINT guess=CHECKPOINT
 ---------------------------------------------------------

 -------------------------------------------
 COSMO-file for #MTCFGRXMJLQNBG-UWTATZPHSA-N
 -------------------------------------------
 Structure from the checkpoint file:  "MTCFGRXMJLQNBG-UWTATZPHSA-N.chk"
 Charge =  0 Multiplicity = 1

                         Standard orientation:
 ---------------------------------------------------------------------
 Center     Atomic      Atomic             Coordinates (Angstroms)
 Number     Number       Type             X           Y           Z
 ---------------------------------------------------------------------
      1          7           0        0.714453    1.717125   -0.216388
      2          6           0       -0.095692    0.463817   -0.441041
      3          6           0       -1.370512    0.510660    0.415065
      4          8           0       -2.265661   -0.491663   -0.070615
      5          6           0        0.886831   -0.699415   -0.037141
      6          8           0        1.953023   -0.280329    0.541440
      7          8           0        0.550518   -1.870696   -0.293332
      8          1           0        1.002127    2.171342   -1.089562
      9          1           0        1.572075    1.249857    0.279541
     10          1           0        0.258853    2.417899    0.380572
     11          1           0       -0.371950    0.388448   -1.499921
     12          1           0       -1.110259    0.349801    1.477531
     13          1           0       -1.824721    1.517177    0.320543
     14          1           0       -2.954097   -0.623268    0.604765
 ---------------------------------------------------------------------

 SCF Done:  E(RB-P86) =  -399.148614032     A.U. after   11 cycles

 The electronic state is 1-A.
 Alpha  occ. eigenvalues --  -18.78016 -18.74347 -18.73323 -14.08288  -9.99830
 Alpha  occ. eigenvalues --   -9.95886  -9.95750  -0.96803  -0.94648  -0.89973
 Alpha  occ. eigenvalues --   -0.87265  -0.69236  -0.59137  -0.51653  -0.50015
 Alpha  occ. eigenvalues --   -0.47916  -0.47109  -0.42570  -0.41129  -0.38258
 Alpha  occ. eigenvalues --   -0.37538  -0.35984  -0.34670  -0.30816  -0.25272
 Alpha  occ. eigenvalues --   -0.24378  -0.23460  -0.21305
 Alpha virt. eigenvalues --   -0.01531   0.00727   0.02538   0.05524   0.07027
 Alpha virt. eigenvalues --    0.08000   0.09813   0.10630   0.11268   0.13192
 Alpha virt. eigenvalues --    0.15106   0.16038   0.18654   0.20154   0.21407

 Mulliken charges:
               1
     1  N   -0.297424
     2  C   -0.107769
     3  C   -0.211188
     4  O   -0.416413
     5  C    0.176828
     6  O   -0.471850
     7  O   -0.456427
     8  H    0.328708
     9  H    0.293563
    10  H    0.321168
    11  H    0.202198
    12  H    0.155727
    13  H    0.161918
    14  H    0.320962
 Sum of Mulliken charges =  -0.00000

 Dipole moment (field-independent basis, Debye):
    X=             -3.8699    Y=             12.8129    Z=              0.1371  Tot=             13.3852
 Quadrupole moment (field-independent basis, Debye-Ang):
   XX=            -45.2263   YY=            -38.9262   ZZ=            -38.8369
   XY=              7.7500   XZ=             -9.3695   YZ=             -3.6828

 Normal termination of Gaussian 16 at Mon Feb 22 21:17:27 2021.
