 Gaussian 16, Revision C.01,

 -------------------------------------------------------------
 #P BP86/TZVP EmpiricalDispersion=GD3 SCRF=(Solvent=Water) Opt
 -------------------------------------------------------------

 -------------------------------------
 Particle #MUBZPKHOEPUJKR-UHFFFAOYSA-N
 -------------------------------------
 Symbolic Z-matrix:
 Charge =  0 Multiplicity = 1

 SCF Done:  E(RB-P86) =  -378.471162033     A.U. after   13 cycles
 SCF Done:  E(RB-P86) =  -378.495362868     A.U. after   11 cycles
 SCF Done:  E(RB-P86) =  -378.502418459     A.U. after   11 cycles
 SCF Done:  E(RB-P86) =  -378.502941912     A.U. after   10 cycles
 SCF Done:  E(RB-P86) =  -378.502984487     A.U. after    9 cycles
 Optimization completed.
    -- Stationary point found.
 Normal termination of Gaussian 16 at Mon Feb 22 21:14:09 2021.
 Gaussian 16:  ES64L-G16RevC.01  3-Jul-2019

 ---------------------------------------------------------
 # BP86/TZVP SCRF=COSMORS geom=CHECKPOINT guess=CHECKPOINT
 ---------------------------------------------------------

 -------------------------------------------
 COSMO-file for #MUBZPKHOEPUJKR-UHFFFAOYSA-N
 -------------------------------------------
 Structure from the checkpoint file:  "MUBZPKHOEPUJKR-UHFFFAOYSA-N.chk"
 Charge =  0 Multiplicity = 1

                         Standard orientation:
 ---------------------------------------------------------------------
 Center     Atomic      Atomic             Coordinates (Angstroms)
 Number     Number       Type             X           Y           Z
 ---------------------------------------------------------------------
      1          8           0       -1.215145   -1.289374    0.000000
      2          6           0       -0.759591   -0.164437   -0.000003
      3          8           0       -1.472591    0.976009    0.000001
      4          6           0        0.759582    0.164430    0.000002
      5          8           0        1.215164    1.289374   -0.000001
      6          8           0        1.472582   -0.976010    0.000000
      7          1           0       -2.425318    0.736289    0.000002
      8          1           0        2.425296   -0.736229   -0.000001
 ---------------------------------------------------------------------

 SCF Done:  E(RB-P86) =  -378.507566168     A.U. after   10 cycles

 The electronic state is 1-A.
 Alpha  occ. eigenvalues --  -18.84186 -18.84185 -18.79400 -18.79399 -10.05925
 Alpha  occ. eigenvalues --  -10.05917  -1.05676  -1.03452  -0.97326  -0.95881
 Alpha  occ. eigenvalues --   -0.67020  -0.58469  -0.48824  -0.46125  -0.45809
 Alpha  occ. eigenvalues --   -0.45194  -0.40029  -0.39958  -0.36885  -0.31718
 Alpha  occ. eigenvalues --   -0.30797  -0.30500  -0.25122
 Alpha virt. eigenvalues --   -0.11981   0.00856   0.02491   0.03029   0.09421
 Alpha virt. eigenvalues --    0.11927   0.15140   0.18773   0.20717   0.22366
 Alpha virt. eigenvalues --    0.24809   0.25243   0.25290   0.27857   0.33247

 Mulliken charges:
               1
     1  O   -0.310480
     2  C    0.209744
     3  O   -0.250731
     4  C    0.209717
     5  O   -0.310481
     6  O   -0.250727
     7  H    0.351489
     8  H    0.351470
 Sum of Mulliken charges =  -0.00000

 Dipole moment (field-independent basis, Debye):
    X=             -0.0004    Y=              0.0001    Z=              0.0008  Tot=              0.0009
 Quadrupole moment (field-independent basis, Debye-Ang):
   XX=            -20.3426   YY=            -43.5257   ZZ=            -32.1288
   XY=             -7.7521   XZ=              0.0003   YZ=              0.0001

 Normal termination of Gaussian 16 at Mon Feb 22 21:14:13 2021.
