 Gaussian 16, Revision C.01,

 -------------------------------------------------------------
 #P BP86/TZVP EmpiricalDispersion=GD3 SCRF=(Solvent=Water) Opt
 -------------------------------------------------------------

 -------------------------------------
 Particle #MUMGGOZAMZWBJJ-DYKIIFRCSA-N
 -------------------------------------
 Symbolic Z-matrix:
 Charge =  0 Multiplicity = 1

 SCF Done:  E(RB-P86) =  -891.669997939     A.U. after   14 cycles
 SCF Done:  E(RB-P86) =  -891.691598435     A.U. after   12 cycles
 SCF Done:  E(RB-P86) =  -891.694279408     A.U. after   12 cycles
 SCF Done:  E(RB-P86) =  -891.694712979     A.U. after   11 cycles
 SCF Done:  E(RB-P86) =  -891.694840380     A.U. after   10 cycles
 SCF Done:  E(RB-P86) =  -891.694893806     A.U. after   10 cycles
 SCF Done:  E(RB-P86) =  -891.694919317     A.U. after   10 cycles
 SCF Done:  E(RB-P86) =  -891.694932638     A.U. after   10 cycles
 SCF Done:  E(RB-P86) =  -891.694937237     A.U. after    9 cycles
 SCF Done:  E(RB-P86) =  -891.694938275     A.U. after    8 cycles
 SCF Done:  E(RB-P86) =  -891.694938559     A.U. after    7 cycles
 Optimization completed.
    -- Stationary point found.
 Normal termination of Gaussian 16 at Mon Feb 22 21:33:30 2021.
 Gaussian 16:  ES64L-G16RevC.01  3-Jul-2019

 ---------------------------------------------------------
 # BP86/TZVP SCRF=COSMORS geom=CHECKPOINT guess=CHECKPOINT
 ---------------------------------------------------------

 -------------------------------------------
 COSMO-file for #MUMGGOZAMZWBJJ-DYKIIFRCSA-N
 -------------------------------------------
 Structure from the checkpoint file:  "MUMGGOZAMZWBJJ-DYKIIFRCSA-N.chk"
 Charge =  0 Multiplicity = 1

                         Standard orientation:
 ---------------------------------------------------------------------
 Center     Atomic      Atomic             Coordinates (Angstroms)
 Number     Number       Type             X           Y           Z
 ---------------------------------------------------------------------
      1          6           0       -2.966644   -0.741910    1.464339
      2          6           0       -2.679456   -0.545573   -0.036924
      3          6           0       -1.866834   -1.721961   -0.594064
      4          6           0       -0.439355   -1.736257   -0.009866
      5          6           0        0.306712   -0.394523   -0.195719
      6          6           0       -0.526402    0.818845    0.298138
      7          6           0        0.198827    2.127030   -0.033690
      8          6           0        1.613895    2.145919    0.566071
      9          6           0        2.417887    0.936865    0.173575
     10          6           0        3.679446    1.082857   -0.311913
     11          6           0        4.598364   -0.028784   -0.550627
     12          8           0        5.748038    0.152843   -0.984459
     13          6           0        4.091829   -1.405142   -0.168111
     14          6           0        2.576382   -1.520127   -0.357164
     15          6           0        1.768545   -0.428349    0.389856
     16          6           0        1.768760   -0.720090    1.915095
     17          6           0       -1.911268    0.760587   -0.348503
     18          6           0       -2.933845    1.879289   -0.059189
     19          6           0       -4.304767    1.241211   -0.440065
     20          6           0       -4.002412   -0.237015   -0.785774
     21          8           0       -5.135489   -1.055694   -0.436922
     22          1           0       -2.043070   -0.847307    2.049099
     23          1           0       -3.534681    0.096591    1.891534
     24          1           0       -3.565680   -1.652942    1.609589
     25          1           0       -2.362351   -2.685022   -0.379861
     26          1           0       -1.810691   -1.625623   -1.693900
     27          1           0        0.129812   -2.548372   -0.485981
     28          1           0       -0.490097   -1.984928    1.061629
     29          1           0        0.430272   -0.243592   -1.287839
     30          1           0       -0.647456    0.760737    1.395252
     31          1           0        0.261664    2.237497   -1.131556
     32          1           0       -0.371171    2.990264    0.343582
     33          1           0        1.523661    2.150585    1.668707
     34          1           0        2.152443    3.065237    0.290979
     35          1           0        4.090222    2.084714   -0.475925
     36          1           0        4.366303   -1.566712    0.890208
     37          1           0        4.634405   -2.161686   -0.753702
     38          1           0        2.349731   -1.442020   -1.434878
     39          1           0        2.241977   -2.515919   -0.032449
     40          1           0        1.123217   -0.022450    2.465620
     41          1           0        2.783839   -0.630953    2.328722
     42          1           0        1.411935   -1.740722    2.111380
     43          1           0       -1.739708    0.759335   -1.445335
     44          1           0       -2.721831    2.791156   -0.634633
     45          1           0       -2.908102    2.157891    1.006454
     46          1           0       -5.011012    1.266460    0.403808
     47          1           0       -4.788795    1.754610   -1.282509
     48          1           0       -3.805578   -0.336694   -1.872196
     49          1           0       -4.937632   -1.964553   -0.727530
 ---------------------------------------------------------------------

 SCF Done:  E(RB-P86) =  -891.628474228     A.U. after   12 cycles

 The electronic state is 1-A.
 Alpha  occ. eigenvalues --  -18.76948 -18.75565  -9.97855  -9.93927  -9.92991
 Alpha  occ. eigenvalues --   -9.92160  -9.90078  -9.90003  -9.89854  -9.89794
 Alpha  occ. eigenvalues --   -9.89766  -9.89576  -9.89378  -9.89208  -9.89084
 Alpha  occ. eigenvalues --   -9.88830  -9.88754  -9.88707  -9.88700  -9.88665
 Alpha  occ. eigenvalues --   -9.87727  -0.94722  -0.93286  -0.79643  -0.77521
 Alpha  occ. eigenvalues --   -0.72902  -0.72159  -0.69495  -0.68198  -0.65741
 Alpha  occ. eigenvalues --   -0.64469  -0.61663  -0.60682  -0.60195  -0.57343
 Alpha  occ. eigenvalues --   -0.55211  -0.53643  -0.51606  -0.49672  -0.49287
 Alpha  occ. eigenvalues --   -0.47695  -0.45826  -0.44716  -0.43654  -0.42794
 Alpha  occ. eigenvalues --   -0.42468  -0.41273  -0.40435  -0.39911  -0.38726
 Alpha  occ. eigenvalues --   -0.38623  -0.37867  -0.36887  -0.36401  -0.36157
 Alpha  occ. eigenvalues --   -0.35815  -0.34649  -0.34047  -0.33741  -0.33579
 Alpha  occ. eigenvalues --   -0.33193  -0.33038  -0.32006  -0.31626  -0.31144
 Alpha  occ. eigenvalues --   -0.30836  -0.29879  -0.29592  -0.29014  -0.28742
 Alpha  occ. eigenvalues --   -0.27942  -0.27119  -0.26948  -0.26362  -0.25683
 Alpha  occ. eigenvalues --   -0.24397  -0.23562  -0.22150  -0.21134
 Alpha virt. eigenvalues --   -0.09286   0.00651   0.01709   0.02621   0.02783
 Alpha virt. eigenvalues --    0.03379   0.04088   0.05214   0.05617   0.06280
 Alpha virt. eigenvalues --    0.06564   0.06736   0.06807   0.07617   0.08703

 Mulliken charges:
               1
     1  C   -0.484232
     2  C   -0.015760
     3  C   -0.187409
     4  C   -0.318258
     5  C   -0.191337
     6  C   -0.128900
     7  C   -0.261589
     8  C   -0.263037
     9  C   -0.142023
    10  C   -0.112396
    11  C    0.132257
    12  O   -0.372255
    13  C   -0.254084
    14  C   -0.334787
    15  C    0.127330
    16  C   -0.487607
    17  C   -0.343469
    18  C   -0.306319
    19  C   -0.272184
    20  C   -0.066187
    21  O   -0.389344
    22  H    0.166695
    23  H    0.158343
    24  H    0.143503
    25  H    0.142772
    26  H    0.137919
    27  H    0.155858
    28  H    0.166367
    29  H    0.183826
    30  H    0.195535
    31  H    0.140369
    32  H    0.156850
    33  H    0.182847
    34  H    0.152915
    35  H    0.130154
    36  H    0.181788
    37  H    0.165292
    38  H    0.173632
    39  H    0.169203
    40  H    0.168541
    41  H    0.165124
    42  H    0.169271
    43  H    0.186657
    44  H    0.155608
    45  H    0.159255
    46  H    0.151104
    47  H    0.147549
    48  H    0.159808
    49  H    0.304804
 Sum of Mulliken charges =  -0.00000

 Dipole moment (field-independent basis, Debye):
    X=             -4.6960    Y=             -1.1730    Z=              1.7731  Tot=              5.1549
 Quadrupole moment (field-independent basis, Debye-Ang):
   XX=           -199.2401   YY=           -119.0784   ZZ=           -129.0946
   XY=             -2.1549   XZ=             16.1431   YZ=              2.6773

 Normal termination of Gaussian 16 at Mon Feb 22 21:35:06 2021.
