 Gaussian 16, Revision C.01,

 -------------------------------------------------------------
 #P BP86/TZVP EmpiricalDispersion=GD3 SCRF=(Solvent=Water) Opt
 -------------------------------------------------------------

 -------------------------------------
 Particle #MVFGUOIZUNYYSO-UHFFFAOYSA-N
 -------------------------------------
 Symbolic Z-matrix:
 Charge =  0 Multiplicity = 1

 SCF Done:  E(RB-P86) =  -692.413617397     A.U. after   15 cycles
 SCF Done:  E(RB-P86) =  -692.437282283     A.U. after   12 cycles
 SCF Done:  E(RB-P86) =  -692.439930635     A.U. after   11 cycles
 SCF Done:  E(RB-P86) =  -692.440474658     A.U. after   10 cycles
 SCF Done:  E(RB-P86) =  -692.440650169     A.U. after   10 cycles
 SCF Done:  E(RB-P86) =  -692.440724404     A.U. after   10 cycles
 SCF Done:  E(RB-P86) =  -692.440776165     A.U. after   10 cycles
 SCF Done:  E(RB-P86) =  -692.440949515     A.U. after   11 cycles
 SCF Done:  E(RB-P86) =  -692.441384894     A.U. after   13 cycles
 SCF Done:  E(RB-P86) =  -692.440497033     A.U. after   12 cycles
 SCF Done:  E(RB-P86) =  -692.453860414     A.U. after   11 cycles
 SCF Done:  E(RB-P86) =  -692.453847060     A.U. after   10 cycles
 SCF Done:  E(RB-P86) =  -692.453860740     A.U. after    9 cycles
 SCF Done:  E(RB-P86) =  -692.452715009     A.U. after   13 cycles
 SCF Done:  E(RB-P86) =  -692.453864628     A.U. after   10 cycles
 SCF Done:  E(RB-P86) =  -692.453865907     A.U. after    8 cycles
 SCF Done:  E(RB-P86) =  -692.453866880     A.U. after    8 cycles
 SCF Done:  E(RB-P86) =  -692.453867079     A.U. after    8 cycles
 SCF Done:  E(RB-P86) =  -692.453867183     A.U. after    7 cycles
 Optimization completed.
    -- Stationary point found.
 Normal termination of Gaussian 16 at Mon Feb 22 21:45:11 2021.
 Gaussian 16:  ES64L-G16RevC.01  3-Jul-2019

 ---------------------------------------------------------
 # BP86/TZVP SCRF=COSMORS geom=CHECKPOINT guess=CHECKPOINT
 ---------------------------------------------------------

 -------------------------------------------
 COSMO-file for #MVFGUOIZUNYYSO-UHFFFAOYSA-N
 -------------------------------------------
 Structure from the checkpoint file:  "MVFGUOIZUNYYSO-UHFFFAOYSA-N.chk"
 Charge =  0 Multiplicity = 1

                         Standard orientation:
 ---------------------------------------------------------------------
 Center     Atomic      Atomic             Coordinates (Angstroms)
 Number     Number       Type             X           Y           Z
 ---------------------------------------------------------------------
      1          6           0        3.620074   -2.756588   -0.972336
      2          6           0        3.210533   -1.745262    0.104406
      3          6           0        2.737104   -0.420260   -0.494491
      4          7           0        2.284279    0.510285    0.555186
      5          6           0        1.778334    1.793579    0.049331
      6          6           0        1.891190    2.882290    1.126153
      7          6           0        0.295306    1.669661   -0.376295
      8          8           0       -0.234205    2.501523   -1.125198
      9          7           0       -0.315326    0.590793    0.196793
     10          6           0       -1.632499    0.112784    0.063957
     11          6           0       -2.675985    0.926003   -0.416396
     12          6           0       -3.972503    0.412867   -0.519120
     13          6           0       -4.242627   -0.905606   -0.138694
     14          6           0       -3.200891   -1.709482    0.340461
     15          6           0       -1.888793   -1.229404    0.448516
     16          6           0       -0.775542   -2.121501    0.942203
     17          1           0        4.438520   -2.364712   -1.596854
     18          1           0        3.963145   -3.699982   -0.522620
     19          1           0        2.773200   -2.989277   -1.637407
     20          1           0        2.402518   -2.160695    0.729427
     21          1           0        4.061814   -1.552834    0.780805
     22          1           0        1.883422   -0.606131   -1.169916
     23          1           0        3.542153    0.023305   -1.117230
     24          1           0        3.039566    0.672622    1.225394
     25          1           0        2.319201    2.126505   -0.858963
     26          1           0        1.438279    3.818051    0.772121
     27          1           0        1.373791    2.566136    2.045066
     28          1           0        2.947245    3.077644    1.365456
     29          1           0        0.372124    0.044604    0.741852
     30          1           0       -2.456929    1.950732   -0.709995
     31          1           0       -4.773555    1.053730   -0.893869
     32          1           0       -5.254352   -1.308875   -0.215011
     33          1           0       -3.405706   -2.742099    0.635033
     34          1           0       -0.307489   -1.732519    1.862584
     35          1           0       -1.152036   -3.128113    1.166417
     36          1           0        0.023854   -2.222313    0.189270
 ---------------------------------------------------------------------

 SCF Done:  E(RB-P86) =  -692.421472137     A.U. after   11 cycles

 The electronic state is 1-A.
 Alpha  occ. eigenvalues --  -18.74990 -14.03821 -14.00017  -9.99905  -9.94900
 Alpha  occ. eigenvalues --   -9.93932  -9.91805  -9.91671  -9.90269  -9.90232
 Alpha  occ. eigenvalues --   -9.90176  -9.90000  -9.89570  -9.89444  -9.89217
 Alpha  occ. eigenvalues --   -9.88379  -0.96000  -0.87079  -0.83609  -0.77946
 Alpha  occ. eigenvalues --   -0.71800  -0.70636  -0.68506  -0.67188  -0.62738
 Alpha  occ. eigenvalues --   -0.59985  -0.59361  -0.56145  -0.53829  -0.52882
 Alpha  occ. eigenvalues --   -0.50775  -0.48776  -0.44577  -0.44077  -0.43342
 Alpha  occ. eigenvalues --   -0.42197  -0.41471  -0.40333  -0.39340  -0.38544
 Alpha  occ. eigenvalues --   -0.38339  -0.37028  -0.36764  -0.36000  -0.35128
 Alpha  occ. eigenvalues --   -0.34742  -0.34409  -0.33634  -0.32630  -0.31888
 Alpha  occ. eigenvalues --   -0.31302  -0.30816  -0.30622  -0.29393  -0.28827
 Alpha  occ. eigenvalues --   -0.27853  -0.23326  -0.22935  -0.20583  -0.20251
 Alpha virt. eigenvalues --   -0.06046  -0.04503  -0.00625   0.01764   0.03253
 Alpha virt. eigenvalues --    0.04340   0.04555   0.04957   0.06081   0.07399
 Alpha virt. eigenvalues --    0.08088   0.08528   0.09064   0.09365   0.09738

 Mulliken charges:
               1
     1  C   -0.430777
     2  C   -0.243705
     3  C   -0.194521
     4  N   -0.415538
     5  C   -0.117370
     6  C   -0.428844
     7  C    0.208009
     8  O   -0.417241
     9  N   -0.184187
    10  C    0.232513
    11  C   -0.212351
    12  C   -0.160338
    13  C   -0.144041
    14  C   -0.137586
    15  C   -0.113816
    16  C   -0.553951
    17  H    0.135952
    18  H    0.150653
    19  H    0.136651
    20  H    0.143918
    21  H    0.141510
    22  H    0.150880
    23  H    0.127779
    24  H    0.259121
    25  H    0.173430
    26  H    0.154602
    27  H    0.148403
    28  H    0.165027
    29  H    0.313837
    30  H    0.160274
    31  H    0.143644
    32  H    0.143988
    33  H    0.136061
    34  H    0.169881
    35  H    0.169388
    36  H    0.188749
 Sum of Mulliken charges =  -0.00000

 Dipole moment (field-independent basis, Debye):
    X=              4.4792    Y=             -3.7822    Z=              3.1710  Tot=              6.6651
 Quadrupole moment (field-independent basis, Debye-Ang):
   XX=            -84.6243   YY=           -101.6878   ZZ=           -103.4259
   XY=              6.0426   XZ=              2.1054   YZ=              5.0277

 Normal termination of Gaussian 16 at Mon Feb 22 21:45:52 2021.
