 Gaussian 16, Revision C.01,

 -------------------------------------------------------------
 #P BP86/TZVP EmpiricalDispersion=GD3 SCRF=(Solvent=Water) Opt
 -------------------------------------------------------------

 -------------------------------------
 Particle #NEUNOKQNYOCZNP-UHFFFAOYSA-N
 -------------------------------------
 Symbolic Z-matrix:
 Charge =  1 Multiplicity = 1

 SCF Done:  E(RB-P86) =  -559.990705601     A.U. after   13 cycles
 SCF Done:  E(RB-P86) =  -560.015674415     A.U. after   11 cycles
 SCF Done:  E(RB-P86) =  -560.018486809     A.U. after   10 cycles
 SCF Done:  E(RB-P86) =  -560.018438879     A.U. after   10 cycles
 SCF Done:  E(RB-P86) =  -560.018593103     A.U. after   10 cycles
 SCF Done:  E(RB-P86) =  -560.018664766     A.U. after   10 cycles
 SCF Done:  E(RB-P86) =  -560.018682177     A.U. after    9 cycles
 SCF Done:  E(RB-P86) =  -560.018696594     A.U. after    9 cycles
 SCF Done:  E(RB-P86) =  -560.018705574     A.U. after    8 cycles
 SCF Done:  E(RB-P86) =  -560.018713589     A.U. after    9 cycles
 SCF Done:  E(RB-P86) =  -560.018718613     A.U. after    8 cycles
 SCF Done:  E(RB-P86) =  -560.018720090     A.U. after    8 cycles
 SCF Done:  E(RB-P86) =  -560.018720227     A.U. after    7 cycles
 Optimization completed.
    -- Stationary point found.

 1\1\GINC-TCN1721\FOpt\RBP86\TZVP\C11H18N1O1(1+)\ELENAA\23-Feb-2021\0\\
 #P BP86/TZVP EmpiricalDispersion=GD3 SCRF=(Solvent=Water) Opt\\Particl
 e #NEUNOKQNYOCZNP-UHFFFAOYSA-N\\1,1\C,-2.6143745227,-0.8914848473,2.25
 89283977\N,-1.6531889081,-1.2234436733,1.1424230505\C,-2.3880164149,-1
 .1457108358,-0.1747192417\C,-0.5270288948,-0.2045078774,1.1861407868\C
 ,0.4632390822,-0.2802723602,0.0244693608\O,1.5836796711,0.4990955186,0
 .4644639004\C,-1.1331877486,-2.6785005855,1.3147411733\C,-0.3887086538
 ,-2.9255360909,2.5967340463\C,-1.069969487,-3.3968977291,3.7325515559\

 Normal termination of Gaussian 16 at Tue Feb 23 00:17:51 2021.
 Gaussian 16:  ES64L-G16RevC.01  3-Jul-2019

 ---------------------------------------------------------
 # BP86/TZVP SCRF=COSMORS geom=CHECKPOINT guess=CHECKPOINT
 ---------------------------------------------------------

 -------------------------------------------
 COSMO-file for #NEUNOKQNYOCZNP-UHFFFAOYSA-N
 -------------------------------------------
 Structure from the checkpoint file:  "NEUNOKQNYOCZNP-UHFFFAOYSA-N.chk"
 Charge =  1 Multiplicity = 1

                         Standard orientation:
 ---------------------------------------------------------------------
 Center     Atomic      Atomic             Coordinates (Angstroms)
 Number     Number       Type             X           Y           Z
 ---------------------------------------------------------------------
      1          6           0       -0.878852   -1.921436    1.148884
      2          7           0       -1.355542   -0.987979    0.061648
      3          6           0       -2.598734   -1.567696   -0.570239
      4          6           0       -1.660776    0.353070    0.707247
      5          6           0       -2.314231    1.383541   -0.213066
      6          8           0       -2.170710    2.625406    0.489480
      7          6           0       -0.267408   -0.871888   -1.042785
      8          6           0        1.047765   -0.323113   -0.565344
      9          6           0        2.063932   -1.193133   -0.133084
     10          6           0        3.287946   -0.686773    0.313516
     11          6           0        3.512029    0.695355    0.324412
     12          6           0        2.513151    1.568971   -0.122511
     13          6           0        1.289773    1.062320   -0.570274
     14          1           0       -1.693210   -2.060753    1.867971
     15          1           0       -0.606683   -2.881203    0.696399
     16          1           0       -0.009391   -1.475636    1.642415
     17          1           0       -2.893474   -0.949857   -1.424716
     18          1           0       -2.376229   -2.585012   -0.909885
     19          1           0       -3.397060   -1.586281    0.179820
     20          1           0       -2.311135    0.146055    1.566464
     21          1           0       -0.707874    0.749255    1.080866
     22          1           0       -1.810917    1.424114   -1.195913
     23          1           0       -3.376018    1.139893   -0.383165
     24          1           0       -2.711615    3.290453    0.027617
     25          1           0       -0.704922   -0.246590   -1.829527
     26          1           0       -0.159473   -1.890654   -1.436222
     27          1           0        1.897904   -2.272637   -0.152052
     28          1           0        4.069123   -1.372180    0.647396
     29          1           0        4.468197    1.091215    0.672357
     30          1           0        2.688561    2.646271   -0.129118
     31          1           0        0.521119    1.750839   -0.928623
 ---------------------------------------------------------------------

 SCF Done:  E(RB-P86) =  -559.995631660     A.U. after   11 cycles

 The electronic state is 1-A.
 Alpha  occ. eigenvalues --  -18.78310 -14.13883  -9.96078  -9.95901  -9.95513
 Alpha  occ. eigenvalues --   -9.94709  -9.94536  -9.92702  -9.91432  -9.91368
 Alpha  occ. eigenvalues --   -9.91173  -9.91076  -9.91062  -0.95039  -0.93633
 Alpha  occ. eigenvalues --   -0.79635  -0.72440  -0.71140  -0.68879  -0.68416
 Alpha  occ. eigenvalues --   -0.65500  -0.61368  -0.56617  -0.55920  -0.53447
 Alpha  occ. eigenvalues --   -0.50088  -0.48555  -0.47788  -0.45866  -0.44873
 Alpha  occ. eigenvalues --   -0.43136  -0.42248  -0.41338  -0.39529  -0.38415
 Alpha  occ. eigenvalues --   -0.37703  -0.37072  -0.36721  -0.36387  -0.36058
 Alpha  occ. eigenvalues --   -0.35745  -0.34491  -0.33928  -0.31520  -0.31153
 Alpha  occ. eigenvalues --   -0.30911  -0.24597  -0.24428  -0.24315
 Alpha virt. eigenvalues --   -0.06808  -0.05557   0.00235   0.01548   0.03699
 Alpha virt. eigenvalues --    0.04117   0.04266   0.04943   0.05364   0.05660
 Alpha virt. eigenvalues --    0.06292   0.07899   0.08377   0.08511   0.09181

 Mulliken charges:
               1
     1  C   -0.317021
     2  N   -0.181352
     3  C   -0.290507
     4  C   -0.209700
     5  C   -0.216504
     6  O   -0.420055
     7  C   -0.376727
     8  C   -0.005452
     9  C   -0.107109
    10  C   -0.129992
    11  C   -0.126765
    12  C   -0.139224
    13  C   -0.120599
    14  H    0.199752
    15  H    0.206490
    16  H    0.214557
    17  H    0.205829
    18  H    0.196230
    19  H    0.205993
    20  H    0.212179
    21  H    0.233345
    22  H    0.171804
    23  H    0.187122
    24  H    0.324379
    25  H    0.261061
    26  H    0.238266
    27  H    0.157761
    28  H    0.151394
    29  H    0.154351
    30  H    0.150965
    31  H    0.169527
 Sum of Mulliken charges =   1.00000

 Dipole moment (field-independent basis, Debye):
    X=             -6.9527    Y=             -4.5317    Z=             -1.3637  Tot=              8.4105
 Quadrupole moment (field-independent basis, Debye-Ang):
   XX=            -49.2296   YY=            -58.3903   ZZ=            -75.4232
   XY=              2.5449   XZ=              6.6742   YZ=             -5.6025

 Normal termination of Gaussian 16 at Tue Feb 23 00:18:17 2021.
