 Gaussian 16, Revision C.01,

 -------------------------------------------------------------
 #P BP86/TZVP EmpiricalDispersion=GD3 SCRF=(Solvent=Water) Opt
 -------------------------------------------------------------

 -------------------------------------
 Particle #NGSWKAQJJWESNS-ZZXKWVIFSA-N
 -------------------------------------
 Symbolic Z-matrix:
 Charge =  0 Multiplicity = 1

 SCF Done:  E(RB-P86) =  -573.640771841     A.U. after   15 cycles
 SCF Done:  E(RB-P86) =  -573.676935527     A.U. after   13 cycles
 SCF Done:  E(RB-P86) =  -573.684519621     A.U. after   13 cycles
 SCF Done:  E(RB-P86) =  -573.684982491     A.U. after   11 cycles
 SCF Done:  E(RB-P86) =  -573.685134846     A.U. after   11 cycles
 SCF Done:  E(RB-P86) =  -573.685232935     A.U. after   11 cycles
 SCF Done:  E(RB-P86) =  -573.685310030     A.U. after   10 cycles
 SCF Done:  E(RB-P86) =  -573.685374723     A.U. after   11 cycles
 SCF Done:  E(RB-P86) =  -573.685378623     A.U. after    9 cycles
 SCF Done:  E(RB-P86) =  -573.685379401     A.U. after    8 cycles
 SCF Done:  E(RB-P86) =  -573.685379487     A.U. after    7 cycles
 Optimization completed.
    -- Stationary point found.
 Normal termination of Gaussian 16 at Mon Feb 22 21:18:14 2021.
 Gaussian 16:  ES64L-G16RevC.01  3-Jul-2019

 ---------------------------------------------------------
 # BP86/TZVP SCRF=COSMORS geom=CHECKPOINT guess=CHECKPOINT
 ---------------------------------------------------------

 -------------------------------------------
 COSMO-file for #NGSWKAQJJWESNS-ZZXKWVIFSA-N
 -------------------------------------------
 Structure from the checkpoint file:  "NGSWKAQJJWESNS-ZZXKWVIFSA-N.chk"
 Charge =  0 Multiplicity = 1

                         Standard orientation:
 ---------------------------------------------------------------------
 Center     Atomic      Atomic             Coordinates (Angstroms)
 Number     Number       Type             X           Y           Z
 ---------------------------------------------------------------------
      1          8           0       -4.360346   -1.065565   -0.001605
      2          6           0       -3.477757   -0.206187   -0.000102
      3          8           0       -3.777218    1.132725    0.001587
      4          6           0       -2.045997   -0.505652    0.000266
      5          6           0       -1.067668    0.436639   -0.000067
      6          6           0        0.369712    0.218025   -0.000056
      7          6           0        0.963826   -1.066482    0.000550
      8          6           0        2.344452   -1.222117    0.000589
      9          6           0        3.180476   -0.087586   -0.000036
     10          8           0        4.544107   -0.175355    0.000101
     11          6           0        2.615989    1.198560   -0.000658
     12          6           0        1.232531    1.340423   -0.000628
     13          1           0       -4.754564    1.202274    0.000751
     14          1           0       -1.824474   -1.574273    0.000344
     15          1           0       -1.379499    1.486480   -0.000406
     16          1           0        0.339026   -1.961409    0.001052
     17          1           0        2.785738   -2.221942    0.001109
     18          1           0        4.814360   -1.113422   -0.000378
     19          1           0        3.272892    2.069763   -0.001156
     20          1           0        0.800792    2.344343   -0.001129
 ---------------------------------------------------------------------

 SCF Done:  E(RB-P86) =  -573.679063826     A.U. after   11 cycles

 The electronic state is 1-A.
 Alpha  occ. eigenvalues --  -18.81432 -18.81366 -18.76322 -10.02835  -9.97741
 Alpha  occ. eigenvalues --   -9.92816  -9.92097  -9.91737  -9.91677  -9.91329
 Alpha  occ. eigenvalues --   -9.91221  -9.90938  -1.01471  -0.98866  -0.93128
 Alpha  occ. eigenvalues --   -0.79688  -0.74026  -0.69422  -0.68401  -0.60812
 Alpha  occ. eigenvalues --   -0.57571  -0.55662  -0.52491  -0.50582  -0.46286
 Alpha  occ. eigenvalues --   -0.45227  -0.43107  -0.41793  -0.40495  -0.40480
 Alpha  occ. eigenvalues --   -0.38676  -0.38183  -0.36589  -0.35452  -0.34982
 Alpha  occ. eigenvalues --   -0.33130  -0.33113  -0.30608  -0.28783  -0.26905
 Alpha  occ. eigenvalues --   -0.24715  -0.24659  -0.20667
 Alpha virt. eigenvalues --   -0.10587  -0.05611  -0.02444   0.02916   0.03212
 Alpha virt. eigenvalues --    0.03274   0.04698   0.05386   0.08821   0.08959
 Alpha virt. eigenvalues --    0.09768   0.10616   0.10797   0.12225   0.14119

 Mulliken charges:
               1
     1  O   -0.388337
     2  C    0.189762
     3  O   -0.293572
     4  C   -0.175763
     5  C   -0.198518
     6  C   -0.012413
     7  C   -0.091260
     8  C   -0.184052
     9  C    0.144252
    10  O   -0.299566
    11  C   -0.212787
    12  C   -0.142649
    13  H    0.328775
    14  H    0.188251
    15  H    0.173111
    16  H    0.160257
    17  H    0.167660
    18  H    0.335559
    19  H    0.158878
    20  H    0.152412
 Sum of Mulliken charges =  -0.00000

 Dipole moment (field-independent basis, Debye):
    X=              5.2440    Y=              0.1963    Z=             -0.0004  Tot=              5.2477
 Quadrupole moment (field-independent basis, Debye-Ang):
   XX=            -72.2647   YY=            -61.2189   ZZ=            -73.7005
   XY=            -22.0888   XZ=             -0.0159   YZ=             -0.0135

 Normal termination of Gaussian 16 at Mon Feb 22 21:18:27 2021.
