 Gaussian 16, Revision C.01,

 -------------------------------------------------------------
 #P BP86/TZVP EmpiricalDispersion=GD3 SCRF=(Solvent=Water) Opt
 -------------------------------------------------------------

 -------------------------------------
 Particle #NNJVILVZKWQKPM-UHFFFAOYSA-N
 -------------------------------------
 Symbolic Z-matrix:
 Charge =  0 Multiplicity = 1

 SCF Done:  E(RB-P86) =  -731.734121628     A.U. after   15 cycles
 SCF Done:  E(RB-P86) =  -731.759063675     A.U. after   12 cycles
 SCF Done:  E(RB-P86) =  -731.762335189     A.U. after   11 cycles
 SCF Done:  E(RB-P86) =  -731.762809461     A.U. after   10 cycles
 SCF Done:  E(RB-P86) =  -731.762948414     A.U. after   10 cycles
 SCF Done:  E(RB-P86) =  -731.763088284     A.U. after   10 cycles
 SCF Done:  E(RB-P86) =  -731.763177860     A.U. after   10 cycles
 SCF Done:  E(RB-P86) =  -731.763215194     A.U. after   10 cycles
 SCF Done:  E(RB-P86) =  -731.763240543     A.U. after    9 cycles
 SCF Done:  E(RB-P86) =  -731.763260874     A.U. after    9 cycles
 SCF Done:  E(RB-P86) =  -731.763266894     A.U. after    9 cycles
 SCF Done:  E(RB-P86) =  -731.763272127     A.U. after    8 cycles
 SCF Done:  E(RB-P86) =  -731.763274459     A.U. after    8 cycles
 SCF Done:  E(RB-P86) =  -731.763275066     A.U. after    8 cycles
 SCF Done:  E(RB-P86) =  -731.763275274     A.U. after    7 cycles
 SCF Done:  E(RB-P86) =  -731.763275379     A.U. after    7 cycles
 SCF Done:  E(RB-P86) =  -731.763275377     A.U. after    6 cycles
 Optimization completed.
    -- Stationary point found.
 Normal termination of Gaussian 16 at Mon Feb 22 21:29:18 2021.
 Gaussian 16:  ES64L-G16RevC.01  3-Jul-2019

 ---------------------------------------------------------
 # BP86/TZVP SCRF=COSMORS geom=CHECKPOINT guess=CHECKPOINT
 ---------------------------------------------------------

 -------------------------------------------
 COSMO-file for #NNJVILVZKWQKPM-UHFFFAOYSA-N
 -------------------------------------------
 Structure from the checkpoint file:  "NNJVILVZKWQKPM-UHFFFAOYSA-N.chk"
 Charge =  0 Multiplicity = 1

                         Standard orientation:
 ---------------------------------------------------------------------
 Center     Atomic      Atomic             Coordinates (Angstroms)
 Number     Number       Type             X           Y           Z
 ---------------------------------------------------------------------
      1          6           0        3.615983    2.344613   -0.212045
      2          6           0        2.757316    1.199478   -0.749642
      3          7           0        2.895025   -0.049969    0.025796
      4          6           0        4.186103   -0.719477   -0.223816
      5          6           0        4.536090   -1.772739    0.828971
      6          6           0        1.773010   -0.943684   -0.250501
      7          6           0        0.452834   -0.391394    0.306437
      8          8           0        0.351303    0.063997    1.450171
      9          7           0       -0.600478   -0.470880   -0.567005
     10          6           0       -1.952445   -0.128979   -0.244593
     11          6           0       -2.917015   -1.159513   -0.228284
     12          6           0       -2.522656   -2.585851   -0.523522
     13          6           0       -4.244465   -0.820806    0.073738
     14          6           0       -4.598449    0.502221    0.355813
     15          6           0       -3.628744    1.508212    0.325426
     16          6           0       -2.290515    1.216155    0.014808
     17          6           0       -1.258848    2.311625   -0.061380
     18          1           0        3.384956    2.530567    0.847393
     19          1           0        4.693111    2.139189   -0.297941
     20          1           0        3.411151    3.264995   -0.779530
     21          1           0        1.700156    1.503420   -0.694338
     22          1           0        2.976584    1.022693   -1.827628
     23          1           0        4.964859    0.056135   -0.212472
     24          1           0        4.207277   -1.171759   -1.242251
     25          1           0        5.544231   -2.171377    0.639883
     26          1           0        3.841645   -2.626119    0.819179
     27          1           0        4.520638   -1.329404    1.835815
     28          1           0        1.937952   -1.904323    0.261047
     29          1           0        1.675149   -1.168837   -1.338155
     30          1           0       -0.433184   -0.946574   -1.452516
     31          1           0       -1.663563   -2.898480    0.090016
     32          1           0       -2.225466   -2.713599   -1.578058
     33          1           0       -3.357652   -3.272135   -0.329071
     34          1           0       -5.003254   -1.606837    0.095562
     35          1           0       -5.634831    0.750508    0.594953
     36          1           0       -3.910758    2.543792    0.531188
     37          1           0       -0.658120    2.223571   -0.980160
     38          1           0       -1.734314    3.301604   -0.049638
     39          1           0       -0.558017    2.247765    0.785366
 ---------------------------------------------------------------------

 SCF Done:  E(RB-P86) =  -731.729161314     A.U. after   11 cycles

 The electronic state is 1-A.
 Alpha  occ. eigenvalues --  -18.74850 -14.03892 -14.00226 -10.00214  -9.94129
 Alpha  occ. eigenvalues --   -9.92916  -9.91835  -9.91779  -9.91719  -9.91668
 Alpha  occ. eigenvalues --   -9.90267  -9.90055  -9.90027  -9.89385  -9.88987
 Alpha  occ. eigenvalues --   -9.88435  -9.88404  -0.96142  -0.86261  -0.84858
 Alpha  occ. eigenvalues --   -0.78237  -0.71702  -0.69835  -0.69096  -0.67605
 Alpha  occ. eigenvalues --   -0.63954  -0.61733  -0.61621  -0.56346  -0.56256
 Alpha  occ. eigenvalues --   -0.53310  -0.51844  -0.51084  -0.47998  -0.45431
 Alpha  occ. eigenvalues --   -0.44127  -0.42942  -0.42560  -0.41697  -0.40330
 Alpha  occ. eigenvalues --   -0.38994  -0.38257  -0.38010  -0.37238  -0.37005
 Alpha  occ. eigenvalues --   -0.36387  -0.36259  -0.35742  -0.35109  -0.33890
 Alpha  occ. eigenvalues --   -0.33150  -0.32707  -0.32022  -0.31487  -0.31347
 Alpha  occ. eigenvalues --   -0.30782  -0.30582  -0.29740  -0.28964  -0.25459
 Alpha  occ. eigenvalues --   -0.22925  -0.22360  -0.21945  -0.18998
 Alpha virt. eigenvalues --   -0.05386  -0.04291  -0.02862   0.01649   0.03091
 Alpha virt. eigenvalues --    0.03971   0.04679   0.05144   0.05551   0.06873
 Alpha virt. eigenvalues --    0.07259   0.07735   0.08088   0.08625   0.09042

 Mulliken charges:
               1
     1  C   -0.402372
     2  C   -0.213630
     3  N   -0.189375
     4  C   -0.195811
     5  C   -0.408356
     6  C   -0.289550
     7  C    0.161250
     8  O   -0.390879
     9  N   -0.194502
    10  C    0.129447
    11  C   -0.019569
    12  C   -0.491299
    13  C   -0.188452
    14  C   -0.094986
    15  C   -0.167207
    16  C   -0.031153
    17  C   -0.495653
    18  H    0.129015
    19  H    0.141714
    20  H    0.146254
    21  H    0.176127
    22  H    0.122843
    23  H    0.156354
    24  H    0.117644
    25  H    0.146915
    26  H    0.141079
    27  H    0.131790
    28  H    0.196997
    29  H    0.150998
    30  H    0.313873
    31  H    0.166637
    32  H    0.167865
    33  H    0.162690
    34  H    0.134601
    35  H    0.141479
    36  H    0.133556
    37  H    0.171293
    38  H    0.161352
    39  H    0.171019
 Sum of Mulliken charges =  -0.00000

 Dipole moment (field-independent basis, Debye):
    X=              0.0533    Y=             -2.2703    Z=             -6.0566  Tot=              6.4684
 Quadrupole moment (field-independent basis, Debye-Ang):
   XX=            -93.6721   YY=            -94.0722   ZZ=           -112.5983
   XY=             -0.1139   XZ=             -4.8261   YZ=              1.8288

 Normal termination of Gaussian 16 at Mon Feb 22 21:30:03 2021.
