 Gaussian 16, Revision C.01,

 -------------------------------------------------------------
 #P BP86/TZVP EmpiricalDispersion=GD3 SCRF=(Solvent=Water) Opt
 -------------------------------------------------------------

 -------------------------------------
 Particle #NRKYWOKHZRQRJR-UHFFFAOYSA-N
 -------------------------------------
 Symbolic Z-matrix:
 Charge =  0 Multiplicity = 1

 SCF Done:  E(RB-P86) =  -507.146257497     A.U. after   14 cycles
 SCF Done:  E(RB-P86) =  -507.158032668     A.U. after   10 cycles
 SCF Done:  E(RB-P86) =  -507.159121147     A.U. after   10 cycles
 SCF Done:  E(RB-P86) =  -507.159213920     A.U. after    9 cycles
 SCF Done:  E(RB-P86) =  -507.159221362     A.U. after    8 cycles
 SCF Done:  E(RB-P86) =  -507.159221888     A.U. after    8 cycles
 Optimization completed.
    -- Stationary point found.
 Normal termination of Gaussian 16 at Mon Feb 22 21:16:08 2021.
 Gaussian 16:  ES64L-G16RevC.01  3-Jul-2019

 ---------------------------------------------------------
 # BP86/TZVP SCRF=COSMORS geom=CHECKPOINT guess=CHECKPOINT
 ---------------------------------------------------------

 -------------------------------------------
 COSMO-file for #NRKYWOKHZRQRJR-UHFFFAOYSA-N
 -------------------------------------------
 Structure from the checkpoint file:  "NRKYWOKHZRQRJR-UHFFFAOYSA-N.chk"
 Charge =  0 Multiplicity = 1

                         Standard orientation:
 ---------------------------------------------------------------------
 Center     Atomic      Atomic             Coordinates (Angstroms)
 Number     Number       Type             X           Y           Z
 ---------------------------------------------------------------------
      1          7           0        1.636866   -0.977885   -0.000053
      2          6           0        0.965265    0.189059   -0.000632
      3          8           0        1.451408    1.315177    0.000032
      4          6           0       -0.594995   -0.002832   -0.000029
      5          9           0       -1.226130    1.185763   -0.000036
      6          9           0       -1.004711   -0.701256   -1.098899
      7          9           0       -1.003983   -0.700911    1.099376
      8          1           0        1.168530   -1.879917   -0.000122
      9          1           0        2.653951   -0.966027    0.000241
 ---------------------------------------------------------------------

 SCF Done:  E(RB-P86) =  -507.159295133     A.U. after   10 cycles

 The electronic state is 1-A.
 Alpha  occ. eigenvalues --  -24.33185 -24.32836 -24.32832 -18.77293 -14.04652
 Alpha  occ. eigenvalues --  -10.15867 -10.03361  -1.22640  -1.14616  -1.14100
 Alpha  occ. eigenvalues --   -0.98511  -0.85851  -0.68517  -0.59625  -0.55375
 Alpha  occ. eigenvalues --   -0.55186  -0.53789  -0.48268  -0.42707  -0.42664
 Alpha  occ. eigenvalues --   -0.42166  -0.40705  -0.39147  -0.37593  -0.37001
 Alpha  occ. eigenvalues --   -0.36979  -0.26623  -0.25523
 Alpha virt. eigenvalues --   -0.06589   0.03052   0.05309   0.07209   0.09351
 Alpha virt. eigenvalues --    0.10813   0.12780   0.15490   0.17516   0.19901
 Alpha virt. eigenvalues --    0.21710   0.22332   0.25910   0.26311   0.29586

 Mulliken charges:
               1
     1  N   -0.351354
     2  C    0.172785
     3  O   -0.375549
     4  C    0.339256
     5  F   -0.127787
     6  F   -0.141268
     7  F   -0.141178
     8  H    0.317418
     9  H    0.307677
 Sum of Mulliken charges =  -0.00000

 Dipole moment (field-independent basis, Debye):
    X=              2.0549    Y=             -5.0451    Z=             -0.0006  Tot=              5.4476
 Quadrupole moment (field-independent basis, Debye-Ang):
   XX=            -34.5979   YY=            -38.5270   ZZ=            -39.4542
   XY=             -8.5682   XZ=              0.0003   YZ=             -0.0013

 Normal termination of Gaussian 16 at Mon Feb 22 21:16:12 2021.
