 Gaussian 16, Revision C.01,

 -------------------------------------------------------------
 #P BP86/TZVP EmpiricalDispersion=GD3 SCRF=(Solvent=Water) Opt
 -------------------------------------------------------------

 -------------------------------------
 Particle #NUPDFKWZQURWCC-UHFFFAOYSA-M
 -------------------------------------
 Symbolic Z-matrix:
 Charge =  0 Multiplicity = 1

 SCF Done:  E(RB-P86) =  -1020.45623658     A.U. after   13 cycles
 SCF Done:  E(RB-P86) =  -1020.46714585     A.U. after   11 cycles
 SCF Done:  E(RB-P86) =  -1020.47015249     A.U. after   11 cycles
 SCF Done:  E(RB-P86) =  -1020.47093327     A.U. after   11 cycles
 SCF Done:  E(RB-P86) =  -1020.47165995     A.U. after   11 cycles
 SCF Done:  E(RB-P86) =  -1020.47189052     A.U. after   10 cycles
 SCF Done:  E(RB-P86) =  -1020.47201026     A.U. after   10 cycles
 SCF Done:  E(RB-P86) =  -1020.47208166     A.U. after   10 cycles
 SCF Done:  E(RB-P86) =  -1020.47212959     A.U. after   10 cycles
 SCF Done:  E(RB-P86) =  -1020.47215000     A.U. after   10 cycles
 SCF Done:  E(RB-P86) =  -1020.47247526     A.U. after   10 cycles
 SCF Done:  E(RB-P86) =  -1020.47249028     A.U. after   10 cycles
 SCF Done:  E(RB-P86) =  -1020.47253515     A.U. after    9 cycles
 SCF Done:  E(RB-P86) =  -1020.47254121     A.U. after    9 cycles
 SCF Done:  E(RB-P86) =  -1020.47254283     A.U. after    7 cycles
 SCF Done:  E(RB-P86) =  -1020.47254344     A.U. after    8 cycles
 SCF Done:  E(RB-P86) =  -1020.47254320     A.U. after    7 cycles
 SCF Done:  E(RB-P86) =  -1020.47254360     A.U. after    8 cycles
 SCF Done:  E(RB-P86) =  -1020.47254370     A.U. after    7 cycles
 Optimization completed.
    -- Stationary point found.
 Normal termination of Gaussian 16 at Sat Aug 21 10:19:43 2021.
 Gaussian 16:  ES64L-G16RevC.01  3-Jul-2019

 ---------------------------------------------------------
 # BP86/TZVP SCRF=COSMORS geom=CHECKPOINT guess=CHECKPOINT
 ---------------------------------------------------------

 -------------------------------------------
 COSMO-file for #NUPDFKWZQURWCC-UHFFFAOYSA-M
 -------------------------------------------
 Structure from the checkpoint file:  "NUPDFKWZQURWCC-UHFFFAOYSA-M.chk"
 Charge =  0 Multiplicity = 1

                         Standard orientation:
 ---------------------------------------------------------------------
 Center     Atomic      Atomic             Coordinates (Angstroms)
 Number     Number       Type             X           Y           Z
 ---------------------------------------------------------------------
      1          6           0        1.652054   -1.329857   -1.223104
      2          7           0        0.467035   -0.964732   -0.355619
      3          6           0       -0.098040   -2.211709    0.265955
      4          6           0        0.865835    0.046055    0.718544
      5          6           0        1.871059   -0.420641    1.772633
      6          8           0        3.164997   -0.750804    1.280124
      7          6           0       -0.580978   -0.304993   -1.291866
      8          6           0       -1.861120    0.119746   -0.626079
      9          6           0       -2.011252    1.432134   -0.143698
     10          6           0       -3.202865    1.830650    0.469260
     11          6           0       -4.261119    0.922945    0.599705
     12          6           0       -4.128767   -0.380076    0.104125
     13          6           0       -2.937508   -0.777355   -0.510450
     14         17           0        3.805956    1.629295   -0.565452
     15          1           0        1.291351   -1.945772   -2.054947
     16          1           0        2.117617   -0.402973   -1.581285
     17          1           0        2.373697   -1.875109   -0.609606
     18          1           0       -0.463746   -2.867051   -0.532223
     19          1           0       -0.917505   -1.938654    0.938862
     20          1           0        0.696420   -2.719397    0.821217
     21          1           0        1.275759    0.910885    0.177240
     22          1           0       -0.064155    0.336672    1.224587
     23          1           0        1.496923   -1.295403    2.325175
     24          1           0        1.910930    0.416485    2.498796
     25          1           0        3.471056    0.022664    0.717468
     26          1           0       -0.059719    0.550752   -1.740166
     27          1           0       -0.768672   -1.049583   -2.076577
     28          1           0       -1.191830    2.146334   -0.253512
     29          1           0       -3.306897    2.852036    0.840166
     30          1           0       -5.192447    1.234090    1.077098
     31          1           0       -4.957010   -1.086091    0.188962
     32          1           0       -2.846035   -1.789745   -0.910367
 ---------------------------------------------------------------------

 SCF Done:  E(RB-P86) =  -1020.44374422     A.U. after   11 cycles

 The electronic state is 1-A.
 Alpha  occ. eigenvalues -- -100.65586 -18.76216 -14.13108  -9.95751  -9.95126
 Alpha  occ. eigenvalues --   -9.94674  -9.94185  -9.93643  -9.92549  -9.91282
 Alpha  occ. eigenvalues --   -9.91274  -9.91098  -9.90997  -9.90989  -9.09461
 Alpha  occ. eigenvalues --   -6.91337  -6.91245  -6.91239  -0.93739  -0.92270
 Alpha  occ. eigenvalues --   -0.79489  -0.72094  -0.70238  -0.68781  -0.67850
 Alpha  occ. eigenvalues --   -0.65148  -0.64742  -0.60885  -0.56104  -0.55588
 Alpha  occ. eigenvalues --   -0.53773  -0.48896  -0.47749  -0.47224  -0.45650
 Alpha  occ. eigenvalues --   -0.43222  -0.42418  -0.41789  -0.40450  -0.39071
 Alpha  occ. eigenvalues --   -0.38464  -0.38061  -0.36764  -0.36460  -0.36014
 Alpha  occ. eigenvalues --   -0.35552  -0.35173  -0.34352  -0.33542  -0.31317
 Alpha  occ. eigenvalues --   -0.30824  -0.29934  -0.24332  -0.24282  -0.23294
 Alpha  occ. eigenvalues --   -0.22561  -0.22243  -0.22039
 Alpha virt. eigenvalues --   -0.06678  -0.05463   0.01781   0.03244   0.03470
 Alpha virt. eigenvalues --    0.04646   0.05160   0.05334   0.05646   0.06080
 Alpha virt. eigenvalues --    0.06616   0.07960   0.08085   0.08887   0.09317

 Mulliken charges:
               1
     1  C   -0.273138
     2  N   -0.151593
     3  C   -0.361096
     4  C   -0.268891
     5  C   -0.176065
     6  O   -0.398070
     7  C   -0.269145
     8  C   -0.054324
     9  C   -0.117438
    10  C   -0.126946
    11  C   -0.132484
    12  C   -0.126892
    13  C   -0.129425
    14  Cl  -0.828877
    15  H    0.182400
    16  H    0.165816
    17  H    0.195321
    18  H    0.204843
    19  H    0.217669
    20  H    0.210170
    21  H    0.206567
    22  H    0.221125
    23  H    0.171714
    24  H    0.159487
    25  H    0.235400
    26  H    0.232555
    27  H    0.233392
    28  H    0.161195
    29  H    0.150858
    30  H    0.154516
    31  H    0.150840
    32  H    0.160517
 Sum of Mulliken charges =  -0.00000

 Dipole moment (field-independent basis, Debye):
    X=            -16.7980    Y=             -8.9446    Z=              0.2282  Tot=             19.0323
 Quadrupole moment (field-independent basis, Debye-Ang):
   XX=           -148.1624   YY=            -91.6474   ZZ=            -91.6054
   XY=            -20.3795   XZ=              0.5324   YZ=              9.8819

 Normal termination of Gaussian 16 at Sat Aug 21 10:20:20 2021.
