 Gaussian 16, Revision C.01,

 -------------------------------------------------------------
 #P BP86/TZVP EmpiricalDispersion=GD3 SCRF=(Solvent=Water) Opt
 -------------------------------------------------------------

 -------------------------------------
 Particle #ODKSFYDXXFIFQN-BYPYZUCNSA-N
 -------------------------------------
 Symbolic Z-matrix:
 Charge =  0 Multiplicity = 1

 SCF Done:  E(RB-P86) =  -606.778608498     A.U. after   14 cycles
 SCF Done:  E(RB-P86) =  -606.813674230     A.U. after   12 cycles
 SCF Done:  E(RB-P86) =  -606.818814495     A.U. after   13 cycles
 SCF Done:  E(RB-P86) =  -606.819270564     A.U. after   11 cycles
 SCF Done:  E(RB-P86) =  -606.818437602     A.U. after   13 cycles
 SCF Done:  E(RB-P86) =  -606.819658526     A.U. after   11 cycles
 SCF Done:  E(RB-P86) =  -606.819785902     A.U. after   11 cycles
 SCF Done:  E(RB-P86) =  -606.819909176     A.U. after   11 cycles
 SCF Done:  E(RB-P86) =  -606.819947431     A.U. after   11 cycles
 SCF Done:  E(RB-P86) =  -606.819963006     A.U. after    9 cycles
 SCF Done:  E(RB-P86) =  -606.820189700     A.U. after    8 cycles
 SCF Done:  E(RB-P86) =  -606.820189733     A.U. after    6 cycles
 SCF Done:  E(RB-P86) =  -606.820189789     A.U. after    7 cycles
 SCF Done:  E(RB-P86) =  -606.820189947     A.U. after    7 cycles
 SCF Done:  E(RB-P86) =  -606.820190317     A.U. after    8 cycles
 SCF Done:  E(RB-P86) =  -606.820190685     A.U. after    8 cycles
 SCF Done:  E(RB-P86) =  -606.820190932     A.U. after    8 cycles
 SCF Done:  E(RB-P86) =  -606.820191269     A.U. after    8 cycles
 SCF Done:  E(RB-P86) =  -606.820191422     A.U. after    8 cycles
 Optimization completed.
    -- Stationary point found.
 Normal termination of Gaussian 16 at Mon Feb 22 21:37:44 2021.
 Gaussian 16:  ES64L-G16RevC.01  3-Jul-2019

 ---------------------------------------------------------
 # BP86/TZVP SCRF=COSMORS geom=CHECKPOINT guess=CHECKPOINT
 ---------------------------------------------------------

 -------------------------------------------
 COSMO-file for #ODKSFYDXXFIFQN-BYPYZUCNSA-N
 -------------------------------------------
 Structure from the checkpoint file:  "ODKSFYDXXFIFQN-BYPYZUCNSA-N.chk"
 Charge =  0 Multiplicity = 1

                         Standard orientation:
 ---------------------------------------------------------------------
 Center     Atomic      Atomic             Coordinates (Angstroms)
 Number     Number       Type             X           Y           Z
 ---------------------------------------------------------------------
      1          7           0       -4.066344   -1.118167    0.320408
      2          6           0       -3.636758    0.122966    0.038244
      3          7           0       -4.527306    1.083047   -0.269019
      4          7           0       -2.326577    0.399489    0.035032
      5          6           0       -1.250002   -0.591904    0.187505
      6          6           0        0.083215   -0.000985   -0.272596
      7          6           0        1.231457   -1.000477   -0.095774
      8          6           0        2.593023   -0.476869   -0.587504
      9          7           0        3.598945   -1.551716   -0.407162
     10          6           0        2.945736    0.847399    0.165971
     11          8           0        2.731497    1.938906   -0.446501
     12          8           0        3.391818    0.712624    1.348912
     13          1           0       -5.044639   -1.366847    0.219935
     14          1           0       -3.462623   -1.791875    0.778886
     15          1           0       -4.231308    1.964997   -0.673265
     16          1           0       -5.520554    0.947815   -0.115932
     17          1           0       -2.051790    1.378499   -0.004802
     18          1           0       -1.499665   -1.475305   -0.421861
     19          1           0       -1.177703   -0.909370    1.242399
     20          1           0        0.003502    0.296523   -1.331450
     21          1           0        0.298367    0.914934    0.302398
     22          1           0        1.003754   -1.934826   -0.636897
     23          1           0        1.332052   -1.261924    0.973074
     24          1           0        2.520935   -0.252367   -1.664445
     25          1           0        4.471400   -1.250409   -0.854891
     26          1           0        3.820701   -1.561443    0.597668
 ---------------------------------------------------------------------

 SCF Done:  E(RB-P86) =  -606.820788430     A.U. after   11 cycles

 The electronic state is 1-A.
 Alpha  occ. eigenvalues --  -18.71079 -18.70992 -14.05032 -14.04338 -14.04042
 Alpha  occ. eigenvalues --  -13.97666 -10.04546  -9.96793  -9.94305  -9.91504
 Alpha  occ. eigenvalues --   -9.90043  -9.89309  -0.94838  -0.93255  -0.85000
 Alpha  occ. eigenvalues --   -0.84923  -0.83343  -0.79908  -0.72384  -0.65877
 Alpha  occ. eigenvalues --   -0.59929  -0.57814  -0.55279  -0.52858  -0.51742
 Alpha  occ. eigenvalues --   -0.46576  -0.46068  -0.46005  -0.43875  -0.43029
 Alpha  occ. eigenvalues --   -0.41791  -0.39566  -0.39403  -0.37501  -0.36451
 Alpha  occ. eigenvalues --   -0.35336  -0.33256  -0.32424  -0.31266  -0.30039
 Alpha  occ. eigenvalues --   -0.28809  -0.25910  -0.24075  -0.23653  -0.21872
 Alpha  occ. eigenvalues --   -0.19570  -0.18083
 Alpha virt. eigenvalues --   -0.02763   0.00508   0.01288   0.02833   0.03944
 Alpha virt. eigenvalues --    0.04515   0.05490   0.05904   0.06640   0.08314
 Alpha virt. eigenvalues --    0.08408   0.10094   0.10404   0.11650   0.11735

 Mulliken charges:
               1
     1  N   -0.419334
     2  C    0.338214
     3  N   -0.397052
     4  N   -0.265880
     5  C   -0.236861
     6  C   -0.288610
     7  C   -0.266680
     8  C   -0.182284
     9  N   -0.464705
    10  C    0.071388
    11  O   -0.498679
    12  O   -0.496248
    13  H    0.311841
    14  H    0.320924
    15  H    0.312558
    16  H    0.312852
    17  H    0.318366
    18  H    0.178584
    19  H    0.180796
    20  H    0.153012
    21  H    0.154818
    22  H    0.134582
    23  H    0.136654
    24  H    0.150529
    25  H    0.228958
    26  H    0.212259
 Sum of Mulliken charges =  -0.00000

 Dipole moment (field-independent basis, Debye):
    X=            -30.8819    Y=             -5.1204    Z=             -1.6861  Tot=             31.3489
 Quadrupole moment (field-independent basis, Debye-Ang):
   XX=            -38.1919   YY=            -81.2152   ZZ=            -80.6493
   XY=            -19.0217   XZ=            -10.0263   YZ=             -6.6187

 Normal termination of Gaussian 16 at Mon Feb 22 21:38:01 2021.
