 Gaussian 16, Revision C.01,

 -------------------------------------------------------------
 #P BP86/TZVP EmpiricalDispersion=GD3 SCRF=(Solvent=Water) Opt
 -------------------------------------------------------------

 -------------------------------------
 Particle #OFOBLEOULBTSOW-UHFFFAOYSA-N
 -------------------------------------
 Symbolic Z-matrix:
 Charge =  0 Multiplicity = 1

 SCF Done:  E(RB-P86) =  -417.822735214     A.U. after   14 cycles
 SCF Done:  E(RB-P86) =  -417.841750096     A.U. after   11 cycles
 SCF Done:  E(RB-P86) =  -417.844791256     A.U. after   11 cycles
 SCF Done:  E(RB-P86) =  -417.844946822     A.U. after   10 cycles
 SCF Done:  E(RB-P86) =  -417.844927199     A.U. after   10 cycles
 SCF Done:  E(RB-P86) =  -417.845025623     A.U. after   10 cycles
 SCF Done:  E(RB-P86) =  -417.845045383     A.U. after    9 cycles
 SCF Done:  E(RB-P86) =  -417.845067423     A.U. after   10 cycles
 SCF Done:  E(RB-P86) =  -417.845087181     A.U. after   10 cycles
 SCF Done:  E(RB-P86) =  -417.845104381     A.U. after   10 cycles
 SCF Done:  E(RB-P86) =  -417.845105639     A.U. after    8 cycles
 SCF Done:  E(RB-P86) =  -417.845105777     A.U. after    8 cycles
 SCF Done:  E(RB-P86) =  -417.845105784     A.U. after    7 cycles
 Optimization completed.
    -- Stationary point found.
 Normal termination of Gaussian 16 at Mon Feb 22 21:17:55 2021.
 Gaussian 16:  ES64L-G16RevC.01  3-Jul-2019

 ---------------------------------------------------------
 # BP86/TZVP SCRF=COSMORS geom=CHECKPOINT guess=CHECKPOINT
 ---------------------------------------------------------

 -------------------------------------------
 COSMO-file for #OFOBLEOULBTSOW-UHFFFAOYSA-N
 -------------------------------------------
 Structure from the checkpoint file:  "OFOBLEOULBTSOW-UHFFFAOYSA-N.chk"
 Charge =  0 Multiplicity = 1

                         Standard orientation:
 ---------------------------------------------------------------------
 Center     Atomic      Atomic             Coordinates (Angstroms)
 Number     Number       Type             X           Y           Z
 ---------------------------------------------------------------------
      1          8           0        2.203935    0.732739    0.241796
      2          6           0        1.267507   -0.037136    0.134854
      3          8           0        1.230954   -1.065847   -0.751702
      4          6           0       -0.000138   -0.001447    0.975413
      5          6           0       -1.267605    0.036832    0.134672
      6          8           0       -2.204792   -0.732300    0.240265
      7          8           0       -1.229978    1.066966   -0.750179
      8          1           0        2.065784   -1.051549   -1.268155
      9          1           0       -0.039926   -0.895756    1.610558
     10          1           0        0.039407    0.890989    1.613214
     11          1           0       -2.064796    1.054366   -1.266695
 ---------------------------------------------------------------------

 SCF Done:  E(RB-P86) =  -417.846091664     A.U. after   10 cycles

 The electronic state is 1-A.
 Alpha  occ. eigenvalues --  -18.82939 -18.82938 -18.77995 -18.77993 -10.04767
 Alpha  occ. eigenvalues --  -10.04765  -9.93411  -1.03567  -1.02912  -0.95172
 Alpha  occ. eigenvalues --   -0.95100  -0.72964  -0.59893  -0.56195  -0.48246
 Alpha  occ. eigenvalues --   -0.45234  -0.45174  -0.43954  -0.42061  -0.39901
 Alpha  occ. eigenvalues --   -0.36673  -0.36127  -0.36071  -0.30337  -0.30055
 Alpha  occ. eigenvalues --   -0.27091  -0.24846
 Alpha virt. eigenvalues --   -0.06495  -0.05213   0.01612   0.03817   0.07263
 Alpha virt. eigenvalues --    0.09067   0.11372   0.11984   0.14814   0.15938
 Alpha virt. eigenvalues --    0.17114   0.18770   0.22641   0.24719   0.25346

 Mulliken charges:
               1
     1  O   -0.340218
     2  C    0.212232
     3  O   -0.272269
     4  C   -0.294073
     5  C    0.212195
     6  O   -0.340234
     7  O   -0.272239
     8  H    0.339252
     9  H    0.208011
    10  H    0.208085
    11  H    0.339256
 Sum of Mulliken charges =  -0.00000

 Dipole moment (field-independent basis, Debye):
    X=              0.0012    Y=              0.0001    Z=             -1.0861  Tot=              1.0861
 Quadrupole moment (field-independent basis, Debye-Ang):
   XX=            -44.8152   YY=            -42.7281   ZZ=            -33.2795
   XY=            -11.8830   XZ=             -0.0102   YZ=             -0.0119

 Normal termination of Gaussian 16 at Mon Feb 22 21:18:01 2021.
