 Gaussian 16, Revision C.01,

 -------------------------------------------------------------
 #P BP86/TZVP EmpiricalDispersion=GD3 SCRF=(Solvent=Water) Opt
 -------------------------------------------------------------

 -------------------------------------
 Particle #OSBSFAARYOCBHB-UHFFFAOYSA-N
 -------------------------------------
 Symbolic Z-matrix:
 Charge =  1 Multiplicity = 1

 SCF Done:  E(RB-P86) =  -528.923208867     A.U. after   11 cycles
 SCF Done:  E(RB-P86) =  -528.937109807     A.U. after    9 cycles
 SCF Done:  E(RB-P86) =  -528.938651912     A.U. after    9 cycles
 SCF Done:  E(RB-P86) =  -528.938770750     A.U. after    8 cycles
 SCF Done:  E(RB-P86) =  -528.938794271     A.U. after    8 cycles
 SCF Done:  E(RB-P86) =  -528.938786584     A.U. after    7 cycles
 SCF Done:  E(RB-P86) =  -528.938789428     A.U. after    7 cycles
 SCF Done:  E(RB-P86) =  -528.938813900     A.U. after    7 cycles
 SCF Done:  E(RB-P86) =  -528.938787691     A.U. after    7 cycles
 SCF Done:  E(RB-P86) =  -528.938787151     A.U. after    7 cycles
 SCF Done:  E(RB-P86) =  -528.938646459     A.U. after    9 cycles
 SCF Done:  E(RB-P86) =  -528.938632596     A.U. after    9 cycles
 SCF Done:  E(RB-P86) =  -528.938768724     A.U. after    8 cycles
 SCF Done:  E(RB-P86) =  -528.938784986     A.U. after    8 cycles
 SCF Done:  E(RB-P86) =  -528.938785758     A.U. after    7 cycles
 SCF Done:  E(RB-P86) =  -528.938786407     A.U. after    7 cycles
 SCF Done:  E(RB-P86) =  -528.938782436     A.U. after    7 cycles
 SCF Done:  E(RB-P86) =  -528.938789146     A.U. after    7 cycles
 SCF Done:  E(RB-P86) =  -528.938788308     A.U. after    6 cycles
 Optimization completed.
    -- Stationary point found.

  BP86/TZVP EmpiricalDispersion=GD3 SCRF=(Solvent=Water) Opt\\Particle
 #OSBSFAARYOCBHB-UHFFFAOYSA-N\\1,1\C,2.8898758288,2.1346909151,1.998360
 4393\C,1.778223617,1.7486914528,1.0107970604\C,0.5830274654,1.19867481
 42,1.7827475153\N,-0.6218016288,0.7653288656,0.9425113006\C,-1.6764174
 829,0.2555428989,1.9293060023\C,-2.9859346724,-0.2364932759,1.32082837
 84\C,-3.9234643974,-0.7102351831,2.4418364114\C,-1.1634660923,1.934512
 6231,0.1146008699\C,-1.6221844581,3.1595425468,0.8994402341\C,-2.13392
 25946,4.2292423245,-0.077235875\C,-0.2303727873,-0.3273483874,-0.05663

 Normal termination of Gaussian 16 at Tue Feb 23 00:27:09 2021.
 Gaussian 16:  ES64L-G16RevC.01  3-Jul-2019

 ---------------------------------------------------------
 # BP86/TZVP SCRF=COSMORS geom=CHECKPOINT guess=CHECKPOINT
 ---------------------------------------------------------

 -------------------------------------------
 COSMO-file for #OSBSFAARYOCBHB-UHFFFAOYSA-N
 -------------------------------------------
 Structure from the checkpoint file:  "OSBSFAARYOCBHB-UHFFFAOYSA-N.chk"
 Charge =  1 Multiplicity = 1

                         Standard orientation:
 ---------------------------------------------------------------------
 Center     Atomic      Atomic             Coordinates (Angstroms)
 Number     Number       Type             X           Y           Z
 ---------------------------------------------------------------------
      1          6           0       -2.652800   -2.576633   -1.283136
      2          6           0       -1.853017   -1.802333   -0.224432
      3          6           0       -0.879317   -0.854603   -0.917710
      4          7           0       -0.000006   -0.000175   -0.000016
      5          6           0        0.879937    0.854518   -0.917109
      6          6           0        1.853280    1.802892   -0.224021
      7          6           0        2.653052    2.576989   -1.282884
      8          6           0       -0.854884    0.879356    0.917283
      9          6           0       -1.802818    1.853063    0.224167
     10          6           0       -2.577345    2.652414    1.283024
     11          6           0        0.854188   -0.879927    0.917508
     12          6           0        1.802744   -1.852907    0.224287
     13          6           0        2.576994   -2.652695    1.283032
     14          1           0       -3.359573   -3.265299   -0.800101
     15          1           0       -3.229273   -1.892850   -1.924348
     16          1           0       -1.987216   -3.170177   -1.928106
     17          1           0       -1.312544   -2.514758    0.416775
     18          1           0       -2.547108   -1.242509    0.419807
     19          1           0       -0.188729   -1.413835   -1.562183
     20          1           0       -1.420194   -0.148765   -1.560921
     21          1           0        1.421310    0.148625   -1.559886
     22          1           0        0.189489    1.413482   -1.561962
     23          1           0        1.312521    2.515513    0.416727
     24          1           0        2.547468    1.243622    0.420557
     25          1           0        1.987440    3.170051   -1.928267
     26          1           0        3.229887    1.893108   -1.923663
     27          1           0        3.359503    3.266087   -0.799990
     28          1           0       -1.414154    0.188668    1.561639
     29          1           0       -0.149213    1.420357    1.560577
     30          1           0       -1.243109    2.547446   -0.419839
     31          1           0       -2.515149    1.312673   -0.417179
     32          1           0       -1.893727    3.228933    1.924364
     33          1           0       -3.170712    1.986525    1.927841
     34          1           0       -3.266201    3.359106    0.800141
     35          1           0        1.412890   -0.189529    1.562614
     36          1           0        0.148145   -1.421372    1.560052
     37          1           0        1.243621   -2.547093   -0.420450
     38          1           0        2.515203   -1.311820   -0.416395
     39          1           0        1.893231   -3.229868    1.923636
     40          1           0        3.169829   -1.987064    1.928608
     41          1           0        3.266322   -3.358841    0.800020
 ---------------------------------------------------------------------

 SCF Done:  E(RB-P86) =  -528.897944832     A.U. after    9 cycles

 The electronic state is 1-A.
 Alpha  occ. eigenvalues --  -14.12569  -9.94798  -9.94797  -9.94797  -9.94796
 Alpha  occ. eigenvalues --   -9.90691  -9.90691  -9.90690  -9.90690  -9.89045
 Alpha  occ. eigenvalues --   -9.89045  -9.89045  -9.89045  -0.92648  -0.73688
 Alpha  occ. eigenvalues --   -0.73688  -0.72793  -0.70840  -0.65822  -0.63703
 Alpha  occ. eigenvalues --   -0.63702  -0.58499  -0.56590  -0.53612  -0.53612
 Alpha  occ. eigenvalues --   -0.52049  -0.48376  -0.48376  -0.45098  -0.44662
 Alpha  occ. eigenvalues --   -0.41226  -0.41226  -0.40683  -0.39371  -0.37523
 Alpha  occ. eigenvalues --   -0.37522  -0.36182  -0.35336  -0.34719  -0.34719
 Alpha  occ. eigenvalues --   -0.34655  -0.34399  -0.33962  -0.32527  -0.32527
 Alpha  occ. eigenvalues --   -0.32368  -0.30618  -0.30534  -0.30534  -0.30489
 Alpha  occ. eigenvalues --   -0.30190  -0.30190  -0.29079
 Alpha virt. eigenvalues --    0.00422   0.02501   0.02808   0.02809   0.02837
 Alpha virt. eigenvalues --    0.05014   0.05042   0.05043   0.05581   0.07007
 Alpha virt. eigenvalues --    0.07717   0.07718   0.08878   0.08910   0.08911

 Mulliken charges:
               1
     1  C   -0.452708
     2  C   -0.196599
     3  C   -0.303488
     4  N   -0.149543
     5  C   -0.303745
     6  C   -0.196461
     7  C   -0.452635
     8  C   -0.303744
     9  C   -0.196475
    10  C   -0.452652
    11  C   -0.303593
    12  C   -0.196557
    13  C   -0.452691
    14  H    0.160622
    15  H    0.146264
    16  H    0.146217
    17  H    0.170530
    18  H    0.170551
    19  H    0.222974
    20  H    0.223097
    21  H    0.223104
    22  H    0.222956
    23  H    0.170497
    24  H    0.170507
    25  H    0.146210
    26  H    0.146261
    27  H    0.160638
    28  H    0.223005
    29  H    0.223082
    30  H    0.170532
    31  H    0.170502
    32  H    0.146260
    33  H    0.146214
    34  H    0.160634
    35  H    0.222957
    36  H    0.223115
    37  H    0.170541
    38  H    0.170524
    39  H    0.146266
    40  H    0.146209
    41  H    0.160624
 Sum of Mulliken charges =   1.00000

 Dipole moment (field-independent basis, Debye):
    X=              0.0000    Y=             -0.0001    Z=             -0.0001  Tot=              0.0001
 Quadrupole moment (field-independent basis, Debye-Ang):
   XX=            -73.3195   YY=            -73.3195   ZZ=            -79.3322
   XY=              0.0002   XZ=             -0.0015   YZ=              0.0002

 86/TZVP SCRF=COSMORS geom=CHECKPOINT guess=CHECKPOINT\\COSMO-file for
 #OSBSFAARYOCBHB-UHFFFAOYSA-N\\1,1\C,0,2.8898758288,2.1346909151,1.9983
 604393\C,0,1.778223617,1.7486914528,1.0107970604\C,0,0.5830274654,1.19
 86748142,1.7827475153\N,0,-0.6218016288,0.7653288656,0.9425113006\C,0,
 -1.6764174829,0.2555428989,1.9293060023\C,0,-2.9859346724,-0.236493275
 9,1.3208283784\C,0,-3.9234643974,-0.7102351831,2.4418364114\C,0,-1.163
 4660923,1.9345126231,0.1146008699\C,0,-1.6221844581,3.1595425468,0.899
 4402341\C,0,-2.1339225946,4.2292423245,-0.077235875\C,0,-0.2303727873,

 Normal termination of Gaussian 16 at Tue Feb 23 00:27:44 2021.
