 Gaussian 16, Revision C.01,

 -------------------------------------------------------------
 #P BP86/TZVP EmpiricalDispersion=GD3 SCRF=(Solvent=Water) Opt
 -------------------------------------------------------------

 -------------------------------------
 Particle #PHWBOXQYWZNQIN-UHFFFAOYSA-N
 -------------------------------------
 Symbolic Z-matrix:
 Charge =  0 Multiplicity = 1

 SCF Done:  E(RB-P86) =  -1455.33157472     A.U. after   14 cycles
 SCF Done:  E(RB-P86) =  -1455.36128374     A.U. after   12 cycles
 SCF Done:  E(RB-P86) =  -1455.36659172     A.U. after   12 cycles
 SCF Done:  E(RB-P86) =  -1455.36705824     A.U. after   11 cycles
 SCF Done:  E(RB-P86) =  -1455.36714124     A.U. after   10 cycles
 SCF Done:  E(RB-P86) =  -1455.36715648     A.U. after   10 cycles
 SCF Done:  E(RB-P86) =  -1455.36716550     A.U. after    9 cycles
 SCF Done:  E(RB-P86) =  -1455.36716859     A.U. after    9 cycles
 SCF Done:  E(RB-P86) =  -1455.36716987     A.U. after    8 cycles
 SCF Done:  E(RB-P86) =  -1455.36717021     A.U. after    8 cycles
 Optimization completed.
    -- Stationary point found.
 Normal termination of Gaussian 16 at Mon Feb 22 21:23:48 2021.
 Gaussian 16:  ES64L-G16RevC.01  3-Jul-2019

 ---------------------------------------------------------
 # BP86/TZVP SCRF=COSMORS geom=CHECKPOINT guess=CHECKPOINT
 ---------------------------------------------------------

 -------------------------------------------
 COSMO-file for #PHWBOXQYWZNQIN-UHFFFAOYSA-N
 -------------------------------------------
 Structure from the checkpoint file:  "PHWBOXQYWZNQIN-UHFFFAOYSA-N.chk"
 Charge =  0 Multiplicity = 1

                         Standard orientation:
 ---------------------------------------------------------------------
 Center     Atomic      Atomic             Coordinates (Angstroms)
 Number     Number       Type             X           Y           Z
 ---------------------------------------------------------------------
      1         17           0       -2.333854   -2.035445   -1.058002
      2          6           0       -2.808259   -0.423635   -0.476748
      3          6           0       -3.776205    0.270078   -1.207478
      4          6           0       -4.187369    1.534220   -0.770816
      5          6           0       -3.633535    2.087526    0.388330
      6          6           0       -2.667582    1.372760    1.102866
      7          6           0       -2.229509    0.102931    0.690660
      8          6           0       -1.156573   -0.628618    1.465126
      9          7           0        0.138545   -0.595101    0.768828
     10          6           0        1.100881   -1.533747    1.365803
     11          6           0        2.315335   -1.722139    0.442133
     12          6           0        2.803240   -0.371537    0.012252
     13         16           0        4.372768   -0.050495   -0.708921
     14          6           0        4.008261    1.658125   -0.842094
     15          6           0        2.755285    1.942714   -0.359717
     16          6           0        2.065446    0.783704    0.123889
     17          6           0        0.683473    0.770506    0.720456
     18          1           0       -4.205132   -0.177452   -2.104807
     19          1           0       -4.942656    2.079040   -1.340315
     20          1           0       -3.950816    3.072843    0.734370
     21          1           0       -2.227317    1.802469    2.006262
     22          1           0       -1.443950   -1.684753    1.581570
     23          1           0       -1.085704   -0.190164    2.485574
     24          1           0        1.443430   -1.181646    2.365806
     25          1           0        0.595953   -2.500054    1.510791
     26          1           0        3.099068   -2.285073    0.974101
     27          1           0        2.023052   -2.324617   -0.435092
     28          1           0        4.743946    2.335683   -1.268749
     29          1           0        2.331920    2.947958   -0.352567
     30          1           0        0.715591    1.224916    1.740991
     31          1           0        0.006690    1.399704    0.121056
 ---------------------------------------------------------------------

 SCF Done:  E(RB-P86) =  -1455.33576111     A.U. after   11 cycles

 The electronic state is 1-A.
 Alpha  occ. eigenvalues -- -100.76194 -88.16238 -14.00556  -9.96883  -9.92914
 Alpha  occ. eigenvalues --   -9.92878  -9.92680  -9.92503  -9.92501  -9.92361
 Alpha  occ. eigenvalues --   -9.91591  -9.91266  -9.91214  -9.90913  -9.90735
 Alpha  occ. eigenvalues --   -9.90667  -9.90298  -9.19931  -7.71501  -7.02507
 Alpha  occ. eigenvalues --   -7.01400  -7.01328  -5.73797  -5.73377  -5.72997
 Alpha  occ. eigenvalues --   -0.86101  -0.82015  -0.80362  -0.76852  -0.72259
 Alpha  occ. eigenvalues --   -0.70197  -0.68850  -0.67264  -0.65099  -0.62244
 Alpha  occ. eigenvalues --   -0.58284  -0.55795  -0.54981  -0.53050  -0.51040
 Alpha  occ. eigenvalues --   -0.46816  -0.46164  -0.45497  -0.43766  -0.42409
 Alpha  occ. eigenvalues --   -0.41847  -0.41432  -0.40371  -0.38875  -0.37779
 Alpha  occ. eigenvalues --   -0.37500  -0.36804  -0.35963  -0.35590  -0.34453
 Alpha  occ. eigenvalues --   -0.33374  -0.32758  -0.31890  -0.31688  -0.31068
 Alpha  occ. eigenvalues --   -0.30559  -0.30271  -0.29419  -0.28030  -0.24178
 Alpha  occ. eigenvalues --   -0.22929  -0.22585  -0.20366  -0.19093
 Alpha virt. eigenvalues --   -0.05811  -0.05586  -0.04928  -0.01804  -0.01047
 Alpha virt. eigenvalues --    0.01032   0.03267   0.04527   0.05050   0.05648
 Alpha virt. eigenvalues --    0.06223   0.06641   0.07003   0.07419   0.07865

 Mulliken charges:
               1
     1  Cl  -0.094784
     2  C   -0.230466
     3  C   -0.048133
     4  C   -0.141757
     5  C   -0.133824
     6  C   -0.110217
     7  C    0.148234
     8  C   -0.340842
     9  N   -0.166934
    10  C   -0.243267
    11  C   -0.125930
    12  C   -0.250012
    13  S    0.112093
    14  C   -0.222031
    15  C   -0.217887
    16  C   -0.000227
    17  C   -0.209171
    18  H    0.160282
    19  H    0.153422
    20  H    0.151026
    21  H    0.149558
    22  H    0.192379
    23  H    0.163443
    24  H    0.135614
    25  H    0.166750
    26  H    0.158922
    27  H    0.158787
    28  H    0.205753
    29  H    0.157296
    30  H    0.143231
    31  H    0.178692
 Sum of Mulliken charges =  -0.00000

 Dipole moment (field-independent basis, Debye):
    X=             -1.4262    Y=              2.1109    Z=              2.3482  Tot=              3.4646
 Quadrupole moment (field-independent basis, Debye-Ang):
   XX=           -112.3233   YY=           -104.5823   ZZ=           -112.2346
   XY=             -7.7430   XZ=              1.4419   YZ=             -3.2195

 Normal termination of Gaussian 16 at Mon Feb 22 21:24:28 2021.
