 Gaussian 16, Revision C.01,

 -------------------------------------------------------------
 #P BP86/TZVP EmpiricalDispersion=GD3 SCRF=(Solvent=Water) Opt
 -------------------------------------------------------------

 -------------------------------------
 Particle #QEMXHQIAXOOASZ-UHFFFAOYSA-N
 -------------------------------------
 Symbolic Z-matrix:
 Charge =  1 Multiplicity = 1

 SCF Done:  E(RB-P86) =  -214.312082468     A.U. after    9 cycles
 SCF Done:  E(RB-P86) =  -214.315959530     A.U. after    8 cycles
 SCF Done:  E(RB-P86) =  -214.316163031     A.U. after    8 cycles
 SCF Done:  E(RB-P86) =  -214.315208464     A.U. after    9 cycles
 SCF Done:  E(RB-P86) =  -214.316146212     A.U. after    9 cycles
 SCF Done:  E(RB-P86) =  -214.316179969     A.U. after    7 cycles
 SCF Done:  E(RB-P86) =  -214.316179855     A.U. after    8 cycles
 SCF Done:  E(RB-P86) =  -214.316187433     A.U. after    8 cycles
 SCF Done:  E(RB-P86) =  -214.316189493     A.U. after    7 cycles
 SCF Done:  E(RB-P86) =  -214.316194744     A.U. after    7 cycles
 SCF Done:  E(RB-P86) =  -214.316206513     A.U. after    7 cycles
 SCF Done:  E(RB-P86) =  -214.316216598     A.U. after    7 cycles
 SCF Done:  E(RB-P86) =  -214.316205935     A.U. after    6 cycles
 SCF Done:  E(RB-P86) =  -214.316191940     A.U. after    7 cycles
 SCF Done:  E(RB-P86) =  -214.316208167     A.U. after    7 cycles
 SCF Done:  E(RB-P86) =  -214.316132943     A.U. after    7 cycles
 SCF Done:  E(RB-P86) =  -214.316181003     A.U. after    7 cycles
 SCF Done:  E(RB-P86) =  -214.316172679     A.U. after    7 cycles
 SCF Done:  E(RB-P86) =  -214.316185599     A.U. after    7 cycles
 Optimization completed.
    -- Stationary point found.
 Normal termination of Gaussian 16 at Tue Feb 23 00:13:43 2021.
 Gaussian 16:  ES64L-G16RevC.01  3-Jul-2019

 ---------------------------------------------------------
 # BP86/TZVP SCRF=COSMORS geom=CHECKPOINT guess=CHECKPOINT
 ---------------------------------------------------------

 -------------------------------------------
 COSMO-file for #QEMXHQIAXOOASZ-UHFFFAOYSA-N
 -------------------------------------------
 Structure from the checkpoint file:  "QEMXHQIAXOOASZ-UHFFFAOYSA-N.chk"
 Charge =  1 Multiplicity = 1

                         Standard orientation:
 ---------------------------------------------------------------------
 Center     Atomic      Atomic             Coordinates (Angstroms)
 Number     Number       Type             X           Y           Z
 ---------------------------------------------------------------------
      1          6           0       -0.036918    0.258727    1.487111
      2          7           0       -0.000032    0.000117   -0.000352
      3          6           0        0.072688   -1.487723   -0.250557
      4          6           0        1.214186    0.671201   -0.597573
      5          6           0       -1.249948    0.557844   -0.638887
      6          1           0       -0.920244   -0.234771    1.906773
      7          1           0        0.874804   -0.149506    1.936194
      8          1           0       -0.090714    1.339973    1.654273
      9          1           0        0.982702   -1.878020    0.217863
     10          1           0        0.098753   -1.660638   -1.331862
     11          1           0       -0.812659   -1.960920    0.187918
     12          1           0        2.111392    0.255779   -0.125896
     13          1           0        1.149275    1.747786   -0.406398
     14          1           0        1.228055    0.477486   -1.675698
     15          1           0       -2.120527    0.064402   -0.193770
     16          1           0       -1.211943    0.360982   -1.715651
     17          1           0       -1.288717    1.636337   -0.451845
 ---------------------------------------------------------------------

 SCF Done:  E(RB-P86) =  -214.311676427     A.U. after    8 cycles

 The electronic state is 1-A.
 Alpha  occ. eigenvalues --  -14.13745  -9.94478  -9.94477  -9.94473  -9.94471
 Alpha  occ. eigenvalues --   -0.93839  -0.68100  -0.68092  -0.68090  -0.57004
 Alpha  occ. eigenvalues --   -0.47379  -0.47375  -0.47369  -0.39821  -0.39817
 Alpha  occ. eigenvalues --   -0.36053  -0.36050  -0.36045  -0.35736  -0.35734
 Alpha  occ. eigenvalues --   -0.35733
 Alpha virt. eigenvalues --   -0.00003   0.03447   0.05422   0.05424   0.05431
 Alpha virt. eigenvalues --    0.07294   0.07295   0.07298   0.10315   0.10317
 Alpha virt. eigenvalues --    0.10319   0.11618   0.11623   0.14936   0.14940

 Mulliken charges:
               1
     1  C   -0.283569
     2  N   -0.210143
     3  C   -0.283415
     4  C   -0.283269
     5  C   -0.283559
     6  H    0.195320
     7  H    0.195339
     8  H    0.195334
     9  H    0.195314
    10  H    0.195404
    11  H    0.195310
    12  H    0.195350
    13  H    0.195202
    14  H    0.195313
    15  H    0.195325
    16  H    0.195357
    17  H    0.195387
 Sum of Mulliken charges =   1.00000

 Dipole moment (field-independent basis, Debye):
    X=              0.0009    Y=             -0.0006    Z=             -0.0005  Tot=              0.0012
 Quadrupole moment (field-independent basis, Debye-Ang):
   XX=            -26.4478   YY=            -26.4478   ZZ=            -26.4552
   XY=             -0.0006   XZ=              0.0001   YZ=             -0.0003

 Normal termination of Gaussian 16 at Tue Feb 23 00:13:48 2021.
