 Gaussian 16, Revision C.01,

 -------------------------------------------------------------
 #P BP86/TZVP EmpiricalDispersion=GD3 SCRF=(Solvent=Water) Opt
 -------------------------------------------------------------

 -------------------------------------
 Particle #QUSNBJAOOMFDIB-UHFFFAOYSA-O
 -------------------------------------
 Symbolic Z-matrix:
 Charge =  1 Multiplicity = 1

 SCF Done:  E(RB-P86) =  -135.682924099     A.U. after   10 cycles
 SCF Done:  E(RB-P86) =  -135.685569698     A.U. after    9 cycles
 SCF Done:  E(RB-P86) =  -135.685793622     A.U. after    8 cycles
 SCF Done:  E(RB-P86) =  -135.685809146     A.U. after    7 cycles
 SCF Done:  E(RB-P86) =  -135.685811098     A.U. after    6 cycles
 Optimization completed.
    -- Stationary point found.
 Normal termination of Gaussian 16 at Tue Feb 23 00:11:47 2021.
 Gaussian 16:  ES64L-G16RevC.01  3-Jul-2019

 ---------------------------------------------------------
 # BP86/TZVP SCRF=COSMORS geom=CHECKPOINT guess=CHECKPOINT
 ---------------------------------------------------------

 -------------------------------------------
 COSMO-file for #QUSNBJAOOMFDIB-UHFFFAOYSA-O
 -------------------------------------------
 Structure from the checkpoint file:  "QUSNBJAOOMFDIB-UHFFFAOYSA-O.chk"
 Charge =  1 Multiplicity = 1

                         Standard orientation:
 ---------------------------------------------------------------------
 Center     Atomic      Atomic             Coordinates (Angstroms)
 Number     Number       Type             X           Y           Z
 ---------------------------------------------------------------------
      1          6           0        1.319388   -0.147979    0.000000
      2          6           0       -0.000000    0.605656    0.000000
      3          7           0       -1.179467   -0.352532    0.000000
      4          1           0        1.427509   -0.776607    0.895595
      5          1           0        2.139448    0.582910    0.000000
      6          1           0        1.427509   -0.776607   -0.895595
      7          1           0       -0.119367    1.233271    0.891416
      8          1           0       -0.119367    1.233271   -0.891416
      9          1           0       -1.169563   -0.963622   -0.829322
     10          1           0       -1.169563   -0.963622    0.829322
     11          1           0       -2.076660    0.152668    0.000000
 ---------------------------------------------------------------------

 SCF Done:  E(RB-P86) =  -135.695012217     A.U. after    9 cycles

 The electronic state is 1-A'.
 Alpha  occ. eigenvalues --  -14.10827  -9.95677  -9.89962  -0.90922  -0.70260
 Alpha  occ. eigenvalues --   -0.58613  -0.52014  -0.51239  -0.44520  -0.40230
 Alpha  occ. eigenvalues --   -0.35582  -0.34369  -0.32299
 Alpha virt. eigenvalues --    0.00239   0.04453   0.05954   0.06082   0.08135
 Alpha virt. eigenvalues --    0.09406   0.10121   0.10556   0.11974   0.15599
 Alpha virt. eigenvalues --    0.19186   0.21043   0.21338   0.22913   0.25822

 Mulliken charges:
               1
     1  C   -0.402637
     2  C   -0.190006
     3  N   -0.258745
     4  H    0.153858
     5  H    0.169508
     6  H    0.153858
     7  H    0.189935
     8  H    0.189935
     9  H    0.329497
    10  H    0.329497
    11  H    0.335299
 Sum of Mulliken charges =   1.00000

 Dipole moment (field-independent basis, Debye):
    X=             -4.8522    Y=             -1.3231    Z=             -0.0000  Tot=              5.0293
 Quadrupole moment (field-independent basis, Debye-Ang):
   XX=             -9.7857   YY=            -15.9296   ZZ=            -16.6384
   XY=              2.2566   XZ=              0.0000   YZ=             -0.0000

 Normal termination of Gaussian 16 at Tue Feb 23 00:11:49 2021.
