 Gaussian 16, Revision C.01,

 -------------------------------------------------------------
 #P BP86/TZVP EmpiricalDispersion=GD3 SCRF=(Solvent=Water) Opt
 -------------------------------------------------------------

 -------------------------------------
 Particle #QWBBPBRQALCEIZ-UHFFFAOYSA-N
 -------------------------------------
 Symbolic Z-matrix:
 Charge =  0 Multiplicity = 1

 SCF Done:  E(RB-P86) =  -386.232473628     A.U. after   13 cycles
 SCF Done:  E(RB-P86) =  -386.247825844     A.U. after   12 cycles
 SCF Done:  E(RB-P86) =  -386.248079412     A.U. after   10 cycles
 SCF Done:  E(RB-P86) =  -386.248087085     A.U. after    8 cycles
 SCF Done:  E(RB-P86) =  -386.248088571     A.U. after    8 cycles
 SCF Done:  E(RB-P86) =  -386.248089036     A.U. after    7 cycles
 SCF Done:  E(RB-P86) =  -386.248089786     A.U. after    7 cycles
 SCF Done:  E(RB-P86) =  -386.248090404     A.U. after    7 cycles
 SCF Done:  E(RB-P86) =  -386.248091275     A.U. after    7 cycles
 SCF Done:  E(RB-P86) =  -386.248091723     A.U. after    7 cycles
 SCF Done:  E(RB-P86) =  -386.248092095     A.U. after    7 cycles
 SCF Done:  E(RB-P86) =  -386.248092369     A.U. after    7 cycles
 SCF Done:  E(RB-P86) =  -386.248092535     A.U. after    7 cycles
 Optimization completed.
    -- Stationary point found.
 Normal termination of Gaussian 16 at Mon Feb 22 21:21:01 2021.
 Gaussian 16:  ES64L-G16RevC.01  3-Jul-2019

 ---------------------------------------------------------
 # BP86/TZVP SCRF=COSMORS geom=CHECKPOINT guess=CHECKPOINT
 ---------------------------------------------------------

 -------------------------------------------
 COSMO-file for #QWBBPBRQALCEIZ-UHFFFAOYSA-N
 -------------------------------------------
 Structure from the checkpoint file:  "QWBBPBRQALCEIZ-UHFFFAOYSA-N.chk"
 Charge =  0 Multiplicity = 1

                         Standard orientation:
 ---------------------------------------------------------------------
 Center     Atomic      Atomic             Coordinates (Angstroms)
 Number     Number       Type             X           Y           Z
 ---------------------------------------------------------------------
      1          6           0       -2.588433   -0.315991    0.000079
      2          6           0       -1.175331    0.216674   -0.000092
      3          6           0       -0.943575    1.602622   -0.000063
      4          6           0        0.360622    2.107049    0.000024
      5          6           0        1.448400    1.231549    0.000022
      6          6           0        1.222504   -0.153939   -0.000024
      7          8           0        2.273704   -1.051553    0.000120
      8          6           0       -0.084861   -0.683554   -0.000139
      9          6           0       -0.316560   -2.175358   -0.000027
     10          1           0       -2.782410   -0.945668    0.884015
     11          1           0       -2.782059   -0.947429   -0.882652
     12          1           0       -3.321090    0.502535   -0.000868
     13          1           0       -1.793997    2.288658   -0.000035
     14          1           0        0.534398    3.185348    0.000065
     15          1           0        2.472690    1.615096    0.000214
     16          1           0        3.112236   -0.554478   -0.000495
     17          1           0       -0.897238   -2.487029   -0.883647
     18          1           0        0.627486   -2.731966   -0.000521
     19          1           0       -0.896248   -2.486956    0.884280
 ---------------------------------------------------------------------

 SCF Done:  E(RB-P86) =  -386.237671274     A.U. after   10 cycles

 The electronic state is 1-A.
 Alpha  occ. eigenvalues --  -18.79952  -9.95926  -9.90977  -9.90666  -9.90021
 Alpha  occ. eigenvalues --   -9.89823  -9.89184  -9.88973  -9.88942  -0.97271
 Alpha  occ. eigenvalues --   -0.78207  -0.70864  -0.68686  -0.62881  -0.61002
 Alpha  occ. eigenvalues --   -0.55386  -0.52567  -0.47257  -0.44032  -0.43026
 Alpha  occ. eigenvalues --   -0.39223  -0.38083  -0.36121  -0.35750  -0.35447
 Alpha  occ. eigenvalues --   -0.34589  -0.34517  -0.32819  -0.30495  -0.29362
 Alpha  occ. eigenvalues --   -0.29351  -0.21870  -0.20032
 Alpha virt. eigenvalues --   -0.04205  -0.02786   0.02362   0.03895   0.04942
 Alpha virt. eigenvalues --    0.07840   0.08131   0.08812   0.09597   0.09962
 Alpha virt. eigenvalues --    0.11414   0.11590   0.12891   0.14195   0.15168

 Mulliken charges:
               1
     1  C   -0.488464
     2  C    0.063397
     3  C   -0.175323
     4  C   -0.148462
     5  C   -0.200946
     6  C    0.127054
     7  O   -0.331002
     8  C   -0.084089
     9  C   -0.490807
    10  H    0.162115
    11  H    0.161993
    12  H    0.159783
    13  H    0.138242
    14  H    0.140021
    15  H    0.150273
    16  H    0.327497
    17  H    0.162038
    18  H    0.164648
    19  H    0.162031
 Sum of Mulliken charges =  -0.00000

 Dipole moment (field-independent basis, Debye):
    X=              0.6302    Y=              0.5845    Z=             -0.0001  Tot=              0.8595
 Quadrupole moment (field-independent basis, Debye-Ang):
   XX=            -42.3932   YY=            -52.8917   ZZ=            -58.2682
   XY=              3.8989   XZ=             -0.0044   YZ=              0.0025

 Normal termination of Gaussian 16 at Mon Feb 22 21:21:11 2021.
