 Gaussian 16, Revision C.01,

 -------------------------------------------------------------
 #P BP86/TZVP EmpiricalDispersion=GD3 SCRF=(Solvent=Water) Opt
 -------------------------------------------------------------

 -------------------------------------
 Particle #QWVGKYWNOKOFNN-UHFFFAOYSA-N
 -------------------------------------
 Symbolic Z-matrix:
 Charge =  0 Multiplicity = 1

 SCF Done:  E(RB-P86) =  -346.901865997     A.U. after   13 cycles
 SCF Done:  E(RB-P86) =  -346.917855991     A.U. after   12 cycles
 SCF Done:  E(RB-P86) =  -346.918300888     A.U. after   10 cycles
 SCF Done:  E(RB-P86) =  -346.918402907     A.U. after    9 cycles
 SCF Done:  E(RB-P86) =  -346.918454425     A.U. after    9 cycles
 SCF Done:  E(RB-P86) =  -346.918462560     A.U. after    9 cycles
 SCF Done:  E(RB-P86) =  -346.918463569     A.U. after    8 cycles
 SCF Done:  E(RB-P86) =  -346.918464142     A.U. after    7 cycles
 SCF Done:  E(RB-P86) =  -346.918464346     A.U. after    8 cycles
 SCF Done:  E(RB-P86) =  -346.918464720     A.U. after    7 cycles
 SCF Done:  E(RB-P86) =  -346.918464873     A.U. after    7 cycles
 SCF Done:  E(RB-P86) =  -346.918464924     A.U. after    6 cycles
 Optimization completed.
    -- Stationary point found.
 Normal termination of Gaussian 16 at Mon Feb 22 21:20:36 2021.
 Gaussian 16:  ES64L-G16RevC.01  3-Jul-2019

 ---------------------------------------------------------
 # BP86/TZVP SCRF=COSMORS geom=CHECKPOINT guess=CHECKPOINT
 ---------------------------------------------------------

 -------------------------------------------
 COSMO-file for #QWVGKYWNOKOFNN-UHFFFAOYSA-N
 -------------------------------------------
 Structure from the checkpoint file:  "QWVGKYWNOKOFNN-UHFFFAOYSA-N.chk"
 Charge =  0 Multiplicity = 1

                         Standard orientation:
 ---------------------------------------------------------------------
 Center     Atomic      Atomic             Coordinates (Angstroms)
 Number     Number       Type             X           Y           Z
 ---------------------------------------------------------------------
      1          6           0        1.976655   -1.235866   -0.000012
      2          6           0        0.590033   -0.645716   -0.000011
      3          6           0       -0.562231   -1.444534    0.000019
      4          6           0       -1.848951   -0.888375    0.000008
      5          6           0       -1.996272    0.502814    0.000001
      6          6           0       -0.864440    1.326315   -0.000031
      7          6           0        0.416468    0.755554   -0.000014
      8          8           0        1.563721    1.520712    0.000032
      9          1           0        2.549184   -0.909392    0.882929
     10          1           0        2.549095   -0.909557   -0.883079
     11          1           0        1.936534   -2.333692    0.000081
     12          1           0       -0.442484   -2.531475    0.000013
     13          1           0       -2.726712   -1.537397    0.000047
     14          1           0       -2.990319    0.955070   -0.000018
     15          1           0       -0.971564    2.414857   -0.000013
     16          1           0        1.318929    2.464735    0.000021
 ---------------------------------------------------------------------

 SCF Done:  E(RB-P86) =  -346.912130939     A.U. after   11 cycles

 The electronic state is 1-A.
 Alpha  occ. eigenvalues --  -18.80224  -9.96074  -9.91021  -9.90269  -9.90189
 Alpha  occ. eigenvalues --   -9.90100  -9.89624  -9.89186  -0.97542  -0.78058
 Alpha  occ. eigenvalues --   -0.70478  -0.67165  -0.62011  -0.56791  -0.52912
 Alpha  occ. eigenvalues --   -0.49002  -0.44014  -0.42484  -0.38728  -0.38662
 Alpha  occ. eigenvalues --   -0.36939  -0.35117  -0.34477  -0.34137  -0.31124
 Alpha  occ. eigenvalues --   -0.30287  -0.29821  -0.22888  -0.20301
 Alpha virt. eigenvalues --   -0.04392  -0.03298   0.02742   0.04475   0.05205
 Alpha virt. eigenvalues --    0.07869   0.08967   0.09580   0.10560   0.11930
 Alpha virt. eigenvalues --    0.12322   0.13462   0.14544   0.15606   0.17393

 Mulliken charges:
               1
     1  C   -0.451012
     2  C   -0.083045
     3  C   -0.133268
     4  C   -0.166777
     5  C   -0.159530
     6  C   -0.178959
     7  C    0.115700
     8  O   -0.322302
     9  H    0.153525
    10  H    0.153591
    11  H    0.158937
    12  H    0.137054
    13  H    0.145006
    14  H    0.146740
    15  H    0.156181
    16  H    0.328159
 Sum of Mulliken charges =  -0.00000

 Dipole moment (field-independent basis, Debye):
    X=             -0.4067    Y=              1.5027    Z=             -0.0008  Tot=              1.5567
 Quadrupole moment (field-independent basis, Debye-Ang):
   XX=            -46.9230   YY=            -36.2565   ZZ=            -51.9686
   XY=             -0.5032   XZ=             -0.0002   YZ=              0.0002

 Normal termination of Gaussian 16 at Mon Feb 22 21:20:45 2021.
