 Gaussian 16, Revision C.01,

 -------------------------------------------------------------
 #P BP86/TZVP EmpiricalDispersion=GD3 SCRF=(Solvent=Water) Opt
 -------------------------------------------------------------

 -------------------------------------
 Particle #RAXXELZNTBOGNW-UHFFFAOYSA-N
 -------------------------------------
 Symbolic Z-matrix:
 Charge =  0 Multiplicity = 1

 SCF Done:  E(RB-P86) =  -226.296972914     A.U. after   12 cycles
 SCF Done:  E(RB-P86) =  -226.311931153     A.U. after   11 cycles
 SCF Done:  E(RB-P86) =  -226.312657758     A.U. after   11 cycles
 SCF Done:  E(RB-P86) =  -226.312754736     A.U. after    9 cycles
 SCF Done:  E(RB-P86) =  -226.312764712     A.U. after    8 cycles
 Optimization completed.
    -- Stationary point found.
 Normal termination of Gaussian 16 at Mon Feb 22 21:19:01 2021.
 Gaussian 16:  ES64L-G16RevC.01  3-Jul-2019

 ---------------------------------------------------------
 # BP86/TZVP SCRF=COSMORS geom=CHECKPOINT guess=CHECKPOINT
 ---------------------------------------------------------

 -------------------------------------------
 COSMO-file for #RAXXELZNTBOGNW-UHFFFAOYSA-N
 -------------------------------------------
 Structure from the checkpoint file:  "RAXXELZNTBOGNW-UHFFFAOYSA-N.chk"
 Charge =  0 Multiplicity = 1

                         Standard orientation:
 ---------------------------------------------------------------------
 Center     Atomic      Atomic             Coordinates (Angstroms)
 Number     Number       Type             X           Y           Z
 ---------------------------------------------------------------------
      1          6           0        0.640410   -0.990320    0.000000
      2          6           0        1.123403    0.302235    0.000000
      3          7           0       -0.000000    1.106505    0.000000
      4          6           0       -1.096650    0.288839    0.000000
      5          7           0       -0.745766   -0.992810    0.000000
      6          1           0        1.210897   -1.916091    0.000000
      7          1           0        2.126864    0.714854    0.000000
      8          1           0       -0.008381    2.123608    0.000000
      9          1           0       -2.111996    0.677241    0.000000
 ---------------------------------------------------------------------

 SCF Done:  E(RB-P86) =  -226.314658735     A.U. after   10 cycles

 The electronic state is 1-A'.
 Alpha  occ. eigenvalues --  -14.05724 -13.99201  -9.95075  -9.92748  -9.91423
 Alpha  occ. eigenvalues --   -0.93529  -0.79862  -0.67830  -0.55727  -0.53782
 Alpha  occ. eigenvalues --   -0.50797  -0.39676  -0.39179  -0.39147  -0.36760
 Alpha  occ. eigenvalues --   -0.26172  -0.24777  -0.21374
 Alpha virt. eigenvalues --   -0.02004   0.00899   0.04215   0.07699   0.09101
 Alpha virt. eigenvalues --    0.09257   0.10032   0.13142   0.15851   0.18368
 Alpha virt. eigenvalues --    0.18950   0.21522   0.22065   0.23144   0.24715

 Mulliken charges:
               1
     1  C   -0.192242
     2  C   -0.138044
     3  N   -0.133705
     4  C   -0.101892
     5  N   -0.236340
     6  H    0.164426
     7  H    0.167365
     8  H    0.303006
     9  H    0.167427
 Sum of Mulliken charges =  -0.00000

 Dipole moment (field-independent basis, Debye):
    X=              1.6435    Y=              5.1304    Z=              0.0000  Tot=              5.3872
 Quadrupole moment (field-independent basis, Debye-Ang):
   XX=            -26.3410   YY=            -25.3448   ZZ=            -32.3435
   XY=             -3.9892   XZ=              0.0000   YZ=              0.0000

 Normal termination of Gaussian 16 at Mon Feb 22 21:19:04 2021.
