 Gaussian 16, Revision C.01,

 -------------------------------------------------------------
 #P BP86/TZVP EmpiricalDispersion=GD3 SCRF=(Solvent=Water) Opt
 -------------------------------------------------------------

 -------------------------------------
 Particle #RZVAJINKPMORJF-UHFFFAOYSA-N
 -------------------------------------
 Symbolic Z-matrix:
 Charge =  0 Multiplicity = 1

 SCF Done:  E(RB-P86) =  -515.675587346     A.U. after   15 cycles
 SCF Done:  E(RB-P86) =  -515.697036983     A.U. after   12 cycles
 SCF Done:  E(RB-P86) =  -515.697891856     A.U. after   11 cycles
 SCF Done:  E(RB-P86) =  -515.698068164     A.U. after   11 cycles
 SCF Done:  E(RB-P86) =  -515.698103632     A.U. after    9 cycles
 SCF Done:  E(RB-P86) =  -515.698136812     A.U. after   10 cycles
 SCF Done:  E(RB-P86) =  -515.698148896     A.U. after   10 cycles
 SCF Done:  E(RB-P86) =  -515.698154096     A.U. after   10 cycles
 SCF Done:  E(RB-P86) =  -515.698158287     A.U. after    9 cycles
 SCF Done:  E(RB-P86) =  -515.698179034     A.U. after    9 cycles
 SCF Done:  E(RB-P86) =  -515.698679277     A.U. after    9 cycles
 SCF Done:  E(RB-P86) =  -515.698688486     A.U. after   10 cycles
 SCF Done:  E(RB-P86) =  -515.698704513     A.U. after    9 cycles
 SCF Done:  E(RB-P86) =  -515.698706963     A.U. after    9 cycles
 SCF Done:  E(RB-P86) =  -515.698708546     A.U. after    8 cycles
 SCF Done:  E(RB-P86) =  -515.698708881     A.U. after    8 cycles
 SCF Done:  E(RB-P86) =  -515.698708961     A.U. after    7 cycles
 SCF Done:  E(RB-P86) =  -515.698709111     A.U. after    7 cycles
 SCF Done:  E(RB-P86) =  -515.698709175     A.U. after    6 cycles
 Optimization completed.
    -- Stationary point found.
 Normal termination of Gaussian 16 at Mon Feb 22 21:28:47 2021.
 Gaussian 16:  ES64L-G16RevC.01  3-Jul-2019

 ---------------------------------------------------------
 # BP86/TZVP SCRF=COSMORS geom=CHECKPOINT guess=CHECKPOINT
 ---------------------------------------------------------

 -------------------------------------------
 COSMO-file for #RZVAJINKPMORJF-UHFFFAOYSA-N
 -------------------------------------------
 Structure from the checkpoint file:  "RZVAJINKPMORJF-UHFFFAOYSA-N.chk"
 Charge =  0 Multiplicity = 1

                         Standard orientation:
 ---------------------------------------------------------------------
 Center     Atomic      Atomic             Coordinates (Angstroms)
 Number     Number       Type             X           Y           Z
 ---------------------------------------------------------------------
      1          6           0       -3.983503    0.475396   -0.000010
      2          6           0       -2.627946   -0.212127   -0.000017
      3          8           0       -2.530773   -1.448074    0.000133
      4          7           0       -1.547894    0.638497   -0.000095
      5          6           0       -0.163877    0.339532   -0.000033
      6          6           0        0.734329    1.426208    0.000036
      7          6           0        2.111410    1.219405    0.000054
      8          6           0        2.624514   -0.086640    0.000011
      9          8           0        3.994755   -0.228838    0.000032
     10          6           0        1.739217   -1.173164   -0.000055
     11          6           0        0.355502   -0.967853   -0.000071
     12          1           0       -4.543315    0.143511   -0.886214
     13          1           0       -4.542318    0.145511    0.887582
     14          1           0       -3.934313    1.572459   -0.001262
     15          1           0       -1.768082    1.632302   -0.000150
     16          1           0        0.349897    2.449529    0.000066
     17          1           0        2.799383    2.066470    0.000105
     18          1           0        4.220394   -1.177572   -0.000062
     19          1           0        2.128317   -2.194890   -0.000087
     20          1           0       -0.324447   -1.816045   -0.000124
 ---------------------------------------------------------------------

 SCF Done:  E(RB-P86) =  -515.691855716     A.U. after   11 cycles

 The electronic state is 1-A.
 Alpha  occ. eigenvalues --  -18.80310 -18.74720 -14.04695 -10.00538  -9.96407
 Alpha  occ. eigenvalues --   -9.94944  -9.91100  -9.90693  -9.90645  -9.90587
 Alpha  occ. eigenvalues --   -9.89959  -0.97634  -0.95958  -0.86720  -0.78006
 Alpha  occ. eigenvalues --   -0.69558  -0.68880  -0.65405  -0.57964  -0.57643
 Alpha  occ. eigenvalues --   -0.52092  -0.49863  -0.49094  -0.44003  -0.41953
 Alpha  occ. eigenvalues --   -0.41068  -0.39874  -0.38457  -0.37775  -0.37428
 Alpha  occ. eigenvalues --   -0.36753  -0.35099  -0.34662  -0.33976  -0.31112
 Alpha  occ. eigenvalues --   -0.30742  -0.26354  -0.24085  -0.22591  -0.19164
 Alpha virt. eigenvalues --   -0.05338  -0.05175  -0.00036   0.02511   0.03346
 Alpha virt. eigenvalues --    0.04734   0.06389   0.08298   0.09071   0.10020
 Alpha virt. eigenvalues --    0.10617   0.11185   0.11284   0.11548   0.13226

 Mulliken charges:
               1
     1  C   -0.489173
     2  C    0.294081
     3  O   -0.440451
     4  N   -0.228944
     5  C    0.152127
     6  C   -0.242969
     7  C   -0.233973
     8  C    0.128203
     9  O   -0.323082
    10  C   -0.210127
    11  C   -0.208687
    12  H    0.176038
    13  H    0.176005
    14  H    0.161387
    15  H    0.310609
    16  H    0.160126
    17  H    0.156087
    18  H    0.329778
    19  H    0.163973
    20  H    0.168992
 Sum of Mulliken charges =  -0.00000

 Dipole moment (field-independent basis, Debye):
    X=              0.0684    Y=              3.5285    Z=             -0.0017  Tot=              3.5292
 Quadrupole moment (field-independent basis, Debye-Ang):
   XX=            -58.5795   YY=            -58.1324   ZZ=            -68.3233
   XY=            -20.7956   XZ=             -0.0010   YZ=              0.0013

 Normal termination of Gaussian 16 at Mon Feb 22 21:29:00 2021.
