 Gaussian 16, Revision C.01,

 -------------------------------------------------------------
 #P BP86/TZVP EmpiricalDispersion=GD3 SCRF=(Solvent=Water) Opt
 -------------------------------------------------------------

 -------------------------------------
 Particle #SPALIFXDWQTXKS-UHFFFAOYSA-M
 -------------------------------------
 Symbolic Z-matrix:
 Charge =  0 Multiplicity = 1

 SCF Done:  E(RB-P86) =  -3418.15478226     A.U. after   12 cycles
 SCF Done:  E(RB-P86) =  -3418.16711885     A.U. after   10 cycles
 SCF Done:  E(RB-P86) =  -3418.16445889     A.U. after   11 cycles
 SCF Done:  E(RB-P86) =  -3418.16924498     A.U. after   10 cycles
 SCF Done:  E(RB-P86) =  -3418.17122938     A.U. after   10 cycles
 SCF Done:  E(RB-P86) =  -3418.17215846     A.U. after   10 cycles
 SCF Done:  E(RB-P86) =  -3418.17278194     A.U. after    9 cycles
 SCF Done:  E(RB-P86) =  -3418.17325134     A.U. after    9 cycles
 SCF Done:  E(RB-P86) =  -3418.17346012     A.U. after    9 cycles
 SCF Done:  E(RB-P86) =  -3418.17355436     A.U. after    9 cycles
 SCF Done:  E(RB-P86) =  -3418.17422459     A.U. after    7 cycles
 SCF Done:  E(RB-P86) =  -3418.17422481     A.U. after    7 cycles
 SCF Done:  E(RB-P86) =  -3418.17422483     A.U. after    6 cycles
 SCF Done:  E(RB-P86) =  -3418.17422476     A.U. after    6 cycles
 SCF Done:  E(RB-P86) =  -3418.17422465     A.U. after    6 cycles
 SCF Done:  E(RB-P86) =  -3418.17422420     A.U. after    6 cycles
 SCF Done:  E(RB-P86) =  -3418.17422456     A.U. after    6 cycles
 SCF Done:  E(RB-P86) =  -3418.17422478     A.U. after    7 cycles
 SCF Done:  E(RB-P86) =  -3418.17422412     A.U. after    7 cycles
 Optimization completed.
    -- Stationary point found.
 Normal termination of Gaussian 16 at Sat Aug 21 11:27:51 2021.
 Gaussian 16:  ES64L-G16RevC.01  3-Jul-2019

 ---------------------------------------------------------
 # BP86/TZVP SCRF=COSMORS geom=CHECKPOINT guess=CHECKPOINT
 ---------------------------------------------------------

 -------------------------------------------
 COSMO-file for #SPALIFXDWQTXKS-UHFFFAOYSA-M
 -------------------------------------------
 Structure from the checkpoint file:  "SPALIFXDWQTXKS-UHFFFAOYSA-M.chk"
 Charge =  0 Multiplicity = 1

                         Standard orientation:
 ---------------------------------------------------------------------
 Center     Atomic      Atomic             Coordinates (Angstroms)
 Number     Number       Type             X           Y           Z
 ---------------------------------------------------------------------
      1          6           0        4.289177   -0.070365    2.052407
      2          6           0        3.472687   -0.963525    2.999498
      3          6           0        2.151129   -0.348460    3.510636
      4          6           0        0.913893   -0.566893    2.614671
      5          6           0        1.083025    0.089032    1.247189
      6          7           0       -0.183790    0.173386    0.379075
      7          6           0       -0.713874   -1.255851    0.210352
      8          6           0       -1.897043   -1.447703   -0.729324
      9          6           0       -2.295799   -2.932980   -0.763404
     10          6           0       -3.474727   -3.220483   -1.708396
     11          6           0       -4.779529   -2.518513   -1.306427
     12          6           0       -1.209483    1.079746    1.076973
     13          6           0       -2.220543    1.808472    0.191933
     14          6           0       -3.209298    2.622230    1.052506
     15          6           0       -4.077612    1.804341    2.026681
     16          6           0       -4.878217    0.679860    1.357330
     17          6           0        0.232960    0.706978   -0.990757
     18          6           0        0.995183    2.029639   -0.972148
     19          6           0        1.054057    2.615130   -2.393091
     20          6           0        1.925697    3.876977   -2.500042
     21          6           0        1.412405    5.057870   -1.664914
     22         35           0        2.710280   -2.188077   -1.307998
     23          1           0        3.783528    0.097662    1.090564
     24          1           0        4.478956    0.913666    2.510419
     25          1           0        5.264215   -0.529081    1.826550
     26          1           0        3.258837   -1.929988    2.509273
     27          1           0        4.100749   -1.200787    3.874061
     28          1           0        1.909310   -0.787763    4.491629
     29          1           0        2.291148    0.733109    3.686537
     30          1           0        0.751205   -1.649725    2.502505
     31          1           0        0.034715   -0.156646    3.135927
     32          1           0        1.807779   -0.463811    0.631380
     33          1           0        1.430627    1.122122    1.369287
     34          1           0       -0.987400   -1.594304    1.217426
     35          1           0        0.154348   -1.840289   -0.134139
     36          1           0       -1.655103   -1.118328   -1.751352
     37          1           0       -2.755054   -0.854672   -0.386514
     38          1           0       -1.423485   -3.534038   -1.071954
     39          1           0       -2.559692   -3.261894    0.257680
     40          1           0       -3.640843   -4.310268   -1.734047
     41          1           0       -3.195926   -2.926910   -2.735643
     42          1           0       -5.613688   -2.831972   -1.952205
     43          1           0       -5.050572   -2.757707   -0.265155
     44          1           0       -4.699048   -1.423379   -1.384964
     45          1           0       -1.720435    0.434819    1.801715
     46          1           0       -0.629316    1.818912    1.645696
     47          1           0       -1.703813    2.504287   -0.484826
     48          1           0       -2.777206    1.107294   -0.443856
     49          1           0       -3.870458    3.169297    0.359856
     50          1           0       -2.650617    3.388218    1.617182
     51          1           0       -3.454336    1.383793    2.834295
     52          1           0       -4.772332    2.501014    2.524277
     53          1           0       -4.225365   -0.123512    0.981838
     54          1           0       -5.581046    0.216692    2.065781
     55          1           0       -5.459779    1.059839    0.502007
     56          1           0       -0.685799    0.803799   -1.579614
     57          1           0        0.849633   -0.089027   -1.436474
     58          1           0        0.514992    2.749910   -0.291671
     59          1           0        2.022160    1.876815   -0.605701
     60          1           0        0.028664    2.848534   -2.732094
     61          1           0        1.443154    1.844968   -3.081161
     62          1           0        2.958904    3.629660   -2.199139
     63          1           0        1.977083    4.175455   -3.560360
     64          1           0        2.015516    5.961228   -1.842035
     65          1           0        1.451205    4.844162   -0.585741
     66          1           0        0.366776    5.294831   -1.920887
 ---------------------------------------------------------------------

 SCF Done:  E(RB-P86) =  -3418.09384697     A.U. after   10 cycles

 The electronic state is 1-A.
 Alpha  occ. eigenvalues -- -481.06325 -61.75526 -55.66650 -55.66649 -55.66649
 Alpha  occ. eigenvalues --  -14.11985  -9.94502  -9.94196  -9.94106  -9.94040
 Alpha  occ. eigenvalues --   -9.90246  -9.90180  -9.90106  -9.90042  -9.89526
 Alpha  occ. eigenvalues --   -9.89458  -9.89419  -9.89398  -9.89102  -9.89102
 Alpha  occ. eigenvalues --   -9.89078  -9.89075  -9.88173  -9.88121  -9.88112
 Alpha  occ. eigenvalues --   -9.88077  -8.32884  -6.19913  -6.19912  -6.19911
 Alpha  occ. eigenvalues --   -2.40386  -2.40386  -2.40385  -2.40385  -2.40385
 Alpha  occ. eigenvalues --   -0.91970  -0.74231  -0.74151  -0.73933  -0.72859
 Alpha  occ. eigenvalues --   -0.69317  -0.69072  -0.68875  -0.66702  -0.63158
 Alpha  occ. eigenvalues --   -0.62833  -0.62359  -0.61684  -0.59351  -0.57334
 Alpha  occ. eigenvalues --   -0.56511  -0.56236  -0.52952  -0.51486  -0.51260
 Alpha  occ. eigenvalues --   -0.50824  -0.50151  -0.46938  -0.46489  -0.45485
 Alpha  occ. eigenvalues --   -0.43176  -0.42578  -0.41944  -0.41544  -0.40252
 Alpha  occ. eigenvalues --   -0.39798  -0.39754  -0.39198  -0.39026  -0.38684
 Alpha  occ. eigenvalues --   -0.37534  -0.36765  -0.36513  -0.36021  -0.35342
 Alpha  occ. eigenvalues --   -0.35152  -0.34985  -0.34523  -0.33865  -0.33570
 Alpha  occ. eigenvalues --   -0.33121  -0.33082  -0.32749  -0.32072  -0.31559
 Alpha  occ. eigenvalues --   -0.31428  -0.30523  -0.30465  -0.29109  -0.29070
 Alpha  occ. eigenvalues --   -0.28997  -0.28712  -0.28607  -0.28470  -0.28357
 Alpha  occ. eigenvalues --   -0.28315  -0.28185  -0.27939  -0.27868  -0.27635
 Alpha  occ. eigenvalues --   -0.21203  -0.21177  -0.20910
 Alpha virt. eigenvalues --    0.00789   0.01904   0.02121   0.02323   0.03047
 Alpha virt. eigenvalues --    0.03744   0.03955   0.04129   0.04484   0.04760
 Alpha virt. eigenvalues --    0.05257   0.05708   0.06442   0.06673   0.07108

 Mulliken charges:
               1
     1  C   -0.442993
     2  C   -0.251884
     3  C   -0.281243
     4  C   -0.277701
     5  C   -0.274875
     6  N   -0.104302
     7  C   -0.221272
     8  C   -0.246375
     9  C   -0.303963
    10  C   -0.213741
    11  C   -0.467182
    12  C   -0.324333
    13  C   -0.309764
    14  C   -0.288844
    15  C   -0.269935
    16  C   -0.449926
    17  C   -0.283699
    18  C   -0.319035
    19  C   -0.293605
    20  C   -0.221153
    21  C   -0.455460
    22  Br  -0.913132
    23  H    0.139118
    24  H    0.140032
    25  H    0.146617
    26  H    0.128340
    27  H    0.148328
    28  H    0.161372
    29  H    0.146724
    30  H    0.172203
    31  H    0.185292
    32  H    0.183246
    33  H    0.238067
    34  H    0.220917
    35  H    0.177236
    36  H    0.180444
    37  H    0.100049
    38  H    0.148660
    39  H    0.144200
    40  H    0.146303
    41  H    0.131896
    42  H    0.149673
    43  H    0.136600
    44  H    0.154947
    45  H    0.232442
    46  H    0.217737
    47  H    0.191565
    48  H    0.213181
    49  H    0.160127
    50  H    0.152879
    51  H    0.150957
    52  H    0.151845
    53  H    0.154866
    54  H    0.149644
    55  H    0.141320
    56  H    0.240981
    57  H    0.183815
    58  H    0.201956
    59  H    0.181265
    60  H    0.145645
    61  H    0.154603
    62  H    0.133827
    63  H    0.145456
    64  H    0.148164
    65  H    0.147733
    66  H    0.134144
 Sum of Mulliken charges =  -0.00000

 Dipole moment (field-independent basis, Debye):
    X=            -13.6088    Y=             11.0080    Z=              7.7623  Tot=             19.1476
 Quadrupole moment (field-independent basis, Debye-Ang):
   XX=           -185.1577   YY=           -173.6224   ZZ=           -158.9440
   XY=             26.9932   XZ=             16.5997   YZ=            -13.7148

 Normal termination of Gaussian 16 at Sat Aug 21 11:30:00 2021.
