 Gaussian 16, Revision C.01,

 -------------------------------------------------------------
 #P BP86/TZVP EmpiricalDispersion=GD3 SCRF=(Solvent=Water) Opt
 -------------------------------------------------------------

 -------------------------------------
 Particle #TUNFSRHWOTWDNC-UHFFFAOYSA-N
 -------------------------------------
 Symbolic Z-matrix:
 Charge =  0 Multiplicity = 1

 SCF Done:  E(RB-P86) =  -701.101176431     A.U. after   13 cycles
 SCF Done:  E(RB-P86) =  -701.113162683     A.U. after   10 cycles
 SCF Done:  E(RB-P86) =  -701.114409182     A.U. after   10 cycles
 SCF Done:  E(RB-P86) =  -701.114342613     A.U. after   10 cycles
 SCF Done:  E(RB-P86) =  -701.114556743     A.U. after    9 cycles
 SCF Done:  E(RB-P86) =  -701.114584881     A.U. after    9 cycles
 SCF Done:  E(RB-P86) =  -701.114587109     A.U. after    7 cycles
 SCF Done:  E(RB-P86) =  -701.114589358     A.U. after    8 cycles
 SCF Done:  E(RB-P86) =  -701.114591298     A.U. after    8 cycles
 SCF Done:  E(RB-P86) =  -701.114593019     A.U. after    8 cycles
 SCF Done:  E(RB-P86) =  -701.114620200     A.U. after    9 cycles
 SCF Done:  E(RB-P86) =  -701.114624057     A.U. after    9 cycles
 SCF Done:  E(RB-P86) =  -701.114622667     A.U. after    8 cycles
 SCF Done:  E(RB-P86) =  -701.114618216     A.U. after    9 cycles
 SCF Done:  E(RB-P86) =  -701.114622577     A.U. after    9 cycles
 SCF Done:  E(RB-P86) =  -701.114622584     A.U. after    7 cycles
 SCF Done:  E(RB-P86) =  -701.114622671     A.U. after    7 cycles
 SCF Done:  E(RB-P86) =  -701.114622705     A.U. after    6 cycles
 SCF Done:  E(RB-P86) =  -701.114622681     A.U. after    6 cycles
 Optimization completed.
    -- Stationary point found.
 Normal termination of Gaussian 16 at Mon Feb 22 21:35:12 2021.
 Gaussian 16:  ES64L-G16RevC.01  3-Jul-2019

 ---------------------------------------------------------
 # BP86/TZVP SCRF=COSMORS geom=CHECKPOINT guess=CHECKPOINT
 ---------------------------------------------------------

 -------------------------------------------
 COSMO-file for #TUNFSRHWOTWDNC-UHFFFAOYSA-N
 -------------------------------------------
 Structure from the checkpoint file:  "TUNFSRHWOTWDNC-UHFFFAOYSA-N.chk"
 Charge =  0 Multiplicity = 1

                         Standard orientation:
 ---------------------------------------------------------------------
 Center     Atomic      Atomic             Coordinates (Angstroms)
 Number     Number       Type             X           Y           Z
 ---------------------------------------------------------------------
      1          6           0        9.307748   -0.202568   -0.086007
      2          6           0        8.005595    0.568837    0.162657
      3          6           0        6.749241   -0.274218   -0.095144
      4          6           0        5.438983    0.485350    0.149808
      5          6           0        4.184107   -0.358639   -0.109163
      6          6           0        2.873642    0.400581    0.136383
      7          6           0        1.619115   -0.443266   -0.124489
      8          6           0        0.308621    0.315564    0.121944
      9          6           0       -0.945201   -0.528275   -0.142143
     10          6           0       -2.255194    0.231239    0.105347
     11          6           0       -3.506536   -0.614644   -0.163933
     12          6           0       -4.811039    0.151864    0.085940
     13          6           0       -6.059483   -0.716403   -0.193044
     14          6           0       -7.327513    0.048802    0.095314
     15          8           0       -7.982217   -0.019065    1.125647
     16          8           0       -7.656717    0.890778   -0.927389
     17          1           0        9.364467   -0.555640   -1.128547
     18          1           0        9.373328   -1.087487    0.567727
     19          1           0       10.193853    0.422264    0.105241
     20          1           0        7.985738    0.938052    1.203529
     21          1           0        7.976964    1.466146   -0.480878
     22          1           0        6.767360   -0.644359   -1.136921
     23          1           0        6.776063   -1.172847    0.548559
     24          1           0        5.412867    1.383997   -0.493664
     25          1           0        5.421085    0.854756    1.191699
     26          1           0        4.210353   -1.257591    0.533829
     27          1           0        4.201747   -0.727545   -1.151212
     28          1           0        2.847778    1.300139   -0.505778
     29          1           0        2.855316    0.768420    1.178790
     30          1           0        1.645234   -1.343292    0.516978
     31          1           0        1.637176   -0.810279   -1.167184
     32          1           0        0.283104    1.216487   -0.518220
     33          1           0        0.289368    0.680782    1.165194
     34          1           0       -0.926481   -0.892395   -1.185699
     35          1           0       -0.919891   -1.429532    0.497388
     36          1           0       -2.280225    1.133414   -0.532590
     37          1           0       -2.276150    0.592413    1.149677
     38          1           0       -3.484196   -1.516477    0.473804
     39          1           0       -3.489035   -0.973495   -1.208735
     40          1           0       -4.843114    1.049460   -0.553506
     41          1           0       -4.840021    0.502771    1.131541
     42          1           0       -6.051641   -1.607329    0.450002
     43          1           0       -6.056218   -1.040272   -1.245026
     44          1           0       -8.455855    1.390389   -0.652877
 ---------------------------------------------------------------------

 SCF Done:  E(RB-P86) =  -701.078916015     A.U. after   10 cycles

 The electronic state is 1-A.
 Alpha  occ. eigenvalues --  -18.81956 -18.76904 -10.03176  -9.90952  -9.90102
 Alpha  occ. eigenvalues --   -9.89031  -9.88710  -9.88699  -9.88562  -9.88499
 Alpha  occ. eigenvalues --   -9.88477  -9.88473  -9.88466  -9.88461  -9.88455
 Alpha  occ. eigenvalues --   -9.88053  -1.02069  -0.93834  -0.74155  -0.73329
 Alpha  occ. eigenvalues --   -0.71973  -0.70050  -0.67615  -0.64731  -0.61509
 Alpha  occ. eigenvalues --   -0.58182  -0.55331  -0.53523  -0.52044  -0.51563
 Alpha  occ. eigenvalues --   -0.50979  -0.50812  -0.45199  -0.43399  -0.43307
 Alpha  occ. eigenvalues --   -0.42618  -0.41338  -0.41239  -0.39529  -0.38534
 Alpha  occ. eigenvalues --   -0.37848  -0.37426  -0.36928  -0.35851  -0.35467
 Alpha  occ. eigenvalues --   -0.35114  -0.33749  -0.32957  -0.32587  -0.31791
 Alpha  occ. eigenvalues --   -0.30918  -0.30311  -0.29599  -0.29142  -0.28920
 Alpha  occ. eigenvalues --   -0.28760  -0.28356  -0.28190  -0.28037  -0.27681
 Alpha  occ. eigenvalues --   -0.27434  -0.27411  -0.25742  -0.24365
 Alpha virt. eigenvalues --   -0.04819   0.02118   0.02436   0.02996   0.03797
 Alpha virt. eigenvalues --    0.04830   0.04909   0.05016   0.05837   0.05910
 Alpha virt. eigenvalues --    0.06268   0.07425   0.07531   0.07716   0.09617

 Mulliken charges:
               1
     1  C   -0.418554
     2  C   -0.227864
     3  C   -0.259918
     4  C   -0.243448
     5  C   -0.253086
     6  C   -0.251498
     7  C   -0.252512
     8  C   -0.251766
     9  C   -0.253930
    10  C   -0.250609
    11  C   -0.251026
    12  C   -0.280881
    13  C   -0.260786
    14  C    0.211251
    15  O   -0.366220
    16  O   -0.281439
    17  H    0.131687
    18  H    0.131674
    19  H    0.144447
    20  H    0.126648
    21  H    0.126658
    22  H    0.122687
    23  H    0.122699
    24  H    0.123663
    25  H    0.123639
    26  H    0.125250
    27  H    0.125242
    28  H    0.125676
    29  H    0.125652
    30  H    0.125927
    31  H    0.125947
    32  H    0.126308
    33  H    0.126265
    34  H    0.127372
    35  H    0.127319
    36  H    0.129512
    37  H    0.129196
    38  H    0.134012
    39  H    0.133169
    40  H    0.149750
    41  H    0.142351
    42  H    0.164292
    43  H    0.165728
    44  H    0.329517
 Sum of Mulliken charges =  -0.00000

 Dipole moment (field-independent basis, Debye):
    X=              1.5481    Y=              0.4795    Z=             -1.9010  Tot=              2.4980
 Quadrupole moment (field-independent basis, Debye-Ang):
   XX=           -125.1588   YY=           -103.2234   ZZ=           -107.7789
   XY=             -5.9019   XZ=             16.9255   YZ=             -0.4141

 Normal termination of Gaussian 16 at Mon Feb 22 21:35:45 2021.
