 Gaussian 16, Revision C.01,

 -------------------------------------------------------------
 #P BP86/TZVP EmpiricalDispersion=GD3 SCRF=(Solvent=Water) Opt
 -------------------------------------------------------------

 -------------------------------------
 Particle #TYFQFVWCELRYAO-UHFFFAOYSA-N
 -------------------------------------
 Symbolic Z-matrix:
 Charge =  0 Multiplicity = 1

 SCF Done:  E(RB-P86) =  -614.467523822     A.U. after   15 cycles
 SCF Done:  E(RB-P86) =  -614.484496392     A.U. after   11 cycles
 SCF Done:  E(RB-P86) =  -614.487081962     A.U. after   11 cycles
 SCF Done:  E(RB-P86) =  -614.487265986     A.U. after   10 cycles
 SCF Done:  E(RB-P86) =  -614.487225462     A.U. after   10 cycles
 SCF Done:  E(RB-P86) =  -614.487299783     A.U. after    9 cycles
 SCF Done:  E(RB-P86) =  -614.487316293     A.U. after    8 cycles
 SCF Done:  E(RB-P86) =  -614.487325518     A.U. after    9 cycles
 SCF Done:  E(RB-P86) =  -614.487344295     A.U. after    9 cycles
 SCF Done:  E(RB-P86) =  -614.487437224     A.U. after   11 cycles
 SCF Done:  E(RB-P86) =  -614.488298948     A.U. after    7 cycles
 SCF Done:  E(RB-P86) =  -614.488241995     A.U. after   11 cycles
 SCF Done:  E(RB-P86) =  -614.488273765     A.U. after   10 cycles
 SCF Done:  E(RB-P86) =  -614.488285512     A.U. after   10 cycles
 SCF Done:  E(RB-P86) =  -614.488284588     A.U. after    8 cycles
 SCF Done:  E(RB-P86) =  -614.488285494     A.U. after    8 cycles
 SCF Done:  E(RB-P86) =  -614.488285518     A.U. after    7 cycles
 SCF Done:  E(RB-P86) =  -614.488285552     A.U. after    6 cycles
 SCF Done:  E(RB-P86) =  -614.488285523     A.U. after    6 cycles
 Optimization completed.
    -- Stationary point found.
 Normal termination of Gaussian 16 at Mon Feb 22 21:41:00 2021.
 Gaussian 16:  ES64L-G16RevC.01  3-Jul-2019

 ---------------------------------------------------------
 # BP86/TZVP SCRF=COSMORS geom=CHECKPOINT guess=CHECKPOINT
 ---------------------------------------------------------

 -------------------------------------------
 COSMO-file for #TYFQFVWCELRYAO-UHFFFAOYSA-N
 -------------------------------------------
 Structure from the checkpoint file:  "TYFQFVWCELRYAO-UHFFFAOYSA-N.chk"
 Charge =  0 Multiplicity = 1

                         Standard orientation:
 ---------------------------------------------------------------------
 Center     Atomic      Atomic             Coordinates (Angstroms)
 Number     Number       Type             X           Y           Z
 ---------------------------------------------------------------------
      1          8           0        5.088147    0.064264    1.142167
      2          6           0        4.476623   -0.042127    0.088790
      3          8           0        4.893471    0.555902   -1.064609
      4          6           0        3.170447   -0.774649   -0.095592
      5          6           0        1.975060    0.190484    0.073572
      6          6           0        0.628808   -0.528724   -0.075379
      7          6           0       -0.570329    0.413679    0.088515
      8          6           0       -1.916453   -0.308968   -0.050898
      9          6           0       -3.103769    0.640795    0.110695
     10          6           0       -4.448035   -0.039408   -0.010087
     11          8           0       -4.638603   -1.233320   -0.182113
     12          8           0       -5.471473    0.858452    0.100264
     13          1           0        5.712585    1.056625   -0.859620
     14          1           0        3.120410   -1.569985    0.661164
     15          1           0        3.138335   -1.234209   -1.094586
     16          1           0        2.032400    0.667374    1.066626
     17          1           0        2.050435    0.997275   -0.674389
     18          1           0        0.563353   -1.339666    0.671672
     19          1           0        0.581321   -1.014222   -1.066374
     20          1           0       -0.517655    0.904708    1.076861
     21          1           0       -0.505883    1.221655   -0.662188
     22          1           0       -1.974361   -0.801425   -1.035805
     23          1           0       -1.986234   -1.112679    0.700516
     24          1           0       -3.071556    1.450780   -0.637664
     25          1           0       -3.077929    1.146649    1.091507
     26          1           0       -6.311667    0.358247    0.018917
 ---------------------------------------------------------------------

 SCF Done:  E(RB-P86) =  -614.474076537     A.U. after   11 cycles

 The electronic state is 1-A.
 Alpha  occ. eigenvalues --  -18.81991 -18.81854 -18.77011 -18.76895 -10.03232
 Alpha  occ. eigenvalues --  -10.03186  -9.91055  -9.90971  -9.90179  -9.89556
 Alpha  occ. eigenvalues --   -9.89189  -9.89130  -1.02089  -1.02065  -0.93909
 Alpha  occ. eigenvalues --   -0.93850  -0.74441  -0.72436  -0.68185  -0.62890
 Alpha  occ. eigenvalues --   -0.57724  -0.54408  -0.52512  -0.51745  -0.45385
 Alpha  occ. eigenvalues --   -0.44946  -0.44118  -0.43671  -0.43037  -0.42117
 Alpha  occ. eigenvalues --   -0.41212  -0.39127  -0.37106  -0.36670  -0.35682
 Alpha  occ. eigenvalues --   -0.35049  -0.34638  -0.32135  -0.31690  -0.29867
 Alpha  occ. eigenvalues --   -0.29396  -0.29345  -0.29067  -0.28786  -0.28107
 Alpha  occ. eigenvalues --   -0.24856  -0.24488
 Alpha virt. eigenvalues --   -0.04826  -0.04561   0.02099   0.02513   0.03517
 Alpha virt. eigenvalues --    0.05260   0.05537   0.05848   0.06961   0.08690
 Alpha virt. eigenvalues --    0.09501   0.10210   0.11159   0.11448   0.12092

 Mulliken charges:
               1
     1  O   -0.367050
     2  C    0.212286
     3  O   -0.280277
     4  C   -0.263890
     5  C   -0.283227
     6  C   -0.247596
     7  C   -0.265411
     8  C   -0.264381
     9  C   -0.266050
    10  C    0.203732
    11  O   -0.363825
    12  O   -0.287019
    13  H    0.329434
    14  H    0.166497
    15  H    0.164091
    16  H    0.144432
    17  H    0.149726
    18  H    0.136393
    19  H    0.135758
    20  H    0.135128
    21  H    0.135182
    22  H    0.140661
    23  H    0.139644
    24  H    0.182007
    25  H    0.183827
    26  H    0.329929
 Sum of Mulliken charges =  -0.00000

 Dipole moment (field-independent basis, Debye):
    X=             -1.1116    Y=              2.3418    Z=             -1.6684  Tot=              3.0827
 Quadrupole moment (field-independent basis, Debye-Ang):
   XX=            -76.4188   YY=            -76.1579   ZZ=            -76.3762
   XY=             -5.4180   XZ=            -13.1963   YZ=             -1.4950

 Normal termination of Gaussian 16 at Mon Feb 22 21:41:17 2021.
