 Gaussian 16, Revision C.01,

 -------------------------------------------------------------
 #P BP86/TZVP EmpiricalDispersion=GD3 SCRF=(Solvent=Water) Opt
 -------------------------------------------------------------

 -------------------------------------
 Particle #TZVAOIBSPKDYDC-UHFFFAOYSA-M
 -------------------------------------
 Symbolic Z-matrix:
 Charge =  0 Multiplicity = 1

 SCF Done:  E(RB-P86) =  -1020.44256465     A.U. after   13 cycles
 SCF Done:  E(RB-P86) =  -1020.45329408     A.U. after   11 cycles
 SCF Done:  E(RB-P86) =  -1020.45482288     A.U. after   11 cycles
 SCF Done:  E(RB-P86) =  -1020.45532923     A.U. after   11 cycles
 SCF Done:  E(RB-P86) =  -1020.45566678     A.U. after   11 cycles
 SCF Done:  E(RB-P86) =  -1020.45608761     A.U. after    9 cycles
 SCF Done:  E(RB-P86) =  -1020.45615846     A.U. after   10 cycles
 SCF Done:  E(RB-P86) =  -1020.45625972     A.U. after   10 cycles
 SCF Done:  E(RB-P86) =  -1020.45628789     A.U. after    8 cycles
 SCF Done:  E(RB-P86) =  -1020.45631453     A.U. after    9 cycles
 SCF Done:  E(RB-P86) =  -1020.45633300     A.U. after    8 cycles
 SCF Done:  E(RB-P86) =  -1020.45633536     A.U. after    8 cycles
 SCF Done:  E(RB-P86) =  -1020.45633705     A.U. after    8 cycles
 SCF Done:  E(RB-P86) =  -1020.45633838     A.U. after    8 cycles
 SCF Done:  E(RB-P86) =  -1020.45633821     A.U. after    8 cycles
 SCF Done:  E(RB-P86) =  -1020.45633798     A.U. after    6 cycles
 SCF Done:  E(RB-P86) =  -1020.45633796     A.U. after    8 cycles
 SCF Done:  E(RB-P86) =  -1020.45633835     A.U. after    8 cycles
 SCF Done:  E(RB-P86) =  -1020.45633793     A.U. after    7 cycles
 Optimization completed.
    -- Stationary point found.
 Normal termination of Gaussian 16 at Sat Aug 21 09:46:16 2021.
 Gaussian 16:  ES64L-G16RevC.01  3-Jul-2019

 ---------------------------------------------------------
 # BP86/TZVP SCRF=COSMORS geom=CHECKPOINT guess=CHECKPOINT
 ---------------------------------------------------------

 -------------------------------------------
 COSMO-file for #TZVAOIBSPKDYDC-UHFFFAOYSA-M
 -------------------------------------------
 Structure from the checkpoint file:  "TZVAOIBSPKDYDC-UHFFFAOYSA-M.chk"
 Charge =  0 Multiplicity = 1

                         Standard orientation:
 ---------------------------------------------------------------------
 Center     Atomic      Atomic             Coordinates (Angstroms)
 Number     Number       Type             X           Y           Z
 ---------------------------------------------------------------------
      1          6           0        1.108232    0.711738    0.072002
      2          7           0        1.543268   -0.726919    0.260210
      3          6           0        2.381365   -0.805001    1.519120
      4          6           0        2.397624   -1.138807   -0.914279
      5          6           0        0.345606   -1.654700    0.443664
      6          6           0       -0.525341   -1.900518   -0.784011
      7          8           0       -1.167188   -0.728162   -1.310417
      8          6           0       -2.174803   -0.125550   -0.577581
      9          6           0       -2.529353    1.164791   -1.004322
     10          6           0       -3.547913    1.858167   -0.348873
     11          6           0       -4.218171    1.277979    0.738123
     12          6           0       -3.858611   -0.006593    1.156547
     13          6           0       -2.839434   -0.717350    0.507000
     14         17           0        4.660350    1.570130    0.022664
     15          1           0        0.471850    0.994456    0.918247
     16          1           0        0.546535    0.787909   -0.862426
     17          1           0        2.020424    1.324002    0.040554
     18          1           0        3.224545   -0.110055    1.397056
     19          1           0        2.738331   -1.834037    1.640310
     20          1           0        1.755050   -0.517285    2.371391
     21          1           0        3.290808   -0.497925   -0.905779
     22          1           0        2.668258   -2.194993   -0.801253
     23          1           0        1.833400   -0.983420   -1.839513
     24          1           0       -0.239212   -1.229553    1.269611
     25          1           0        0.748863   -2.623471    0.769398
     26          1           0        0.058692   -2.299937   -1.621773
     27          1           0       -1.260509   -2.675797   -0.510139
     28          1           0       -1.996443    1.605070   -1.849062
     29          1           0       -3.816389    2.861006   -0.687606
     30          1           0       -5.010585    1.823851    1.252885
     31          1           0       -4.372344   -0.472546    2.000040
     32          1           0       -2.587811   -1.720696    0.850301
 ---------------------------------------------------------------------

 SCF Done:  E(RB-P86) =  -1020.43037915     A.U. after   11 cycles

 The electronic state is 1-A.
 Alpha  occ. eigenvalues -- -100.64581 -18.81417 -14.13303  -9.96811  -9.96774
 Alpha  occ. eigenvalues --   -9.95787  -9.93911  -9.93850  -9.93612  -9.90852
 Alpha  occ. eigenvalues --   -9.90794  -9.90756  -9.90483  -9.90097  -9.08456
 Alpha  occ. eigenvalues --   -6.90273  -6.90268  -6.90266  -0.98970  -0.93316
 Alpha  occ. eigenvalues --   -0.78559  -0.72592  -0.68545  -0.68154  -0.67579
 Alpha  occ. eigenvalues --   -0.67371  -0.63614  -0.62088  -0.56839  -0.55813
 Alpha  occ. eigenvalues --   -0.53336  -0.50104  -0.47558  -0.46949  -0.46076
 Alpha  occ. eigenvalues --   -0.44674  -0.43257  -0.41728  -0.40739  -0.39419
 Alpha  occ. eigenvalues --   -0.38247  -0.37956  -0.37420  -0.36299  -0.35663
 Alpha  occ. eigenvalues --   -0.35513  -0.35328  -0.34966  -0.34438  -0.32835
 Alpha  occ. eigenvalues --   -0.31811  -0.30015  -0.28662  -0.23981  -0.21529
 Alpha  occ. eigenvalues --   -0.21519  -0.21320  -0.21005
 Alpha virt. eigenvalues --   -0.05206  -0.04028   0.00780   0.02756   0.03632
 Alpha virt. eigenvalues --    0.04565   0.04980   0.05458   0.05761   0.06639
 Alpha virt. eigenvalues --    0.06853   0.07381   0.08436   0.08702   0.09246

 Mulliken charges:
               1
     1  C   -0.256864
     2  N   -0.172798
     3  C   -0.253364
     4  C   -0.294999
     5  C   -0.256170
     6  C   -0.240703
     7  O   -0.201446
     8  C    0.099656
     9  C   -0.205952
    10  C   -0.140938
    11  C   -0.167739
    12  C   -0.151554
    13  C   -0.182578
    14  Cl  -0.878133
    15  H    0.189313
    16  H    0.198748
    17  H    0.147768
    18  H    0.146693
    19  H    0.190426
    20  H    0.189067
    21  H    0.147682
    22  H    0.198323
    23  H    0.205132
    24  H    0.241505
    25  H    0.213374
    26  H    0.213957
    27  H    0.213885
    28  H    0.161298
    29  H    0.150049
    30  H    0.150672
    31  H    0.150869
    32  H    0.194825
 Sum of Mulliken charges =  -0.00000

 Dipole moment (field-independent basis, Debye):
    X=            -13.9292    Y=            -11.7933    Z=              2.2625  Tot=             18.3909
 Quadrupole moment (field-independent basis, Debye-Ang):
   XX=           -173.7057   YY=            -88.8206   ZZ=            -89.3723
   XY=            -39.3138   XZ=             -3.7743   YZ=             -3.3154

 Normal termination of Gaussian 16 at Sat Aug 21 09:46:51 2021.
