 Gaussian 16, Revision C.01,

 -------------------------------------------------------------
 #P BP86/TZVP EmpiricalDispersion=GD3 SCRF=(Solvent=Water) Opt
 -------------------------------------------------------------

 -------------------------------------
 Particle #UMGDCJDMYOKAJW-UHFFFAOYSA-N
 -------------------------------------
 Symbolic Z-matrix:
 Charge =  0 Multiplicity = 1

 SCF Done:  E(RB-P86) =  -548.342956055     A.U. after   11 cycles
 SCF Done:  E(RB-P86) =  -548.354309741     A.U. after   10 cycles
 SCF Done:  E(RB-P86) =  -548.354437851     A.U. after    9 cycles
 SCF Done:  E(RB-P86) =  -548.354451981     A.U. after    8 cycles
 SCF Done:  E(RB-P86) =  -548.354453523     A.U. after    8 cycles
 Optimization completed.
    -- Stationary point found.
 Normal termination of Gaussian 16 at Mon Feb 22 21:21:05 2021.
 Gaussian 16:  ES64L-G16RevC.01  3-Jul-2019

 ---------------------------------------------------------
 # BP86/TZVP SCRF=COSMORS geom=CHECKPOINT guess=CHECKPOINT
 ---------------------------------------------------------

 -------------------------------------------
 COSMO-file for #UMGDCJDMYOKAJW-UHFFFAOYSA-N
 -------------------------------------------
 Structure from the checkpoint file:  "UMGDCJDMYOKAJW-UHFFFAOYSA-N.chk"
 Charge =  0 Multiplicity = 1

                         Standard orientation:
 ---------------------------------------------------------------------
 Center     Atomic      Atomic             Coordinates (Angstroms)
 Number     Number       Type             X           Y           Z
 ---------------------------------------------------------------------
      1          7           0        1.049399    1.152978   -0.000011
      2          6           0        0.343583    0.000000    0.000114
      3          7           0        1.049399   -1.152978   -0.000011
      4         16           0       -1.373864    0.000000   -0.000012
      5          1           0        0.548415    2.033837   -0.000117
      6          1           0        2.065954    1.179782   -0.000050
      7          1           0        2.065954   -1.179782   -0.000051
      8          1           0        0.548415   -2.033837   -0.000118
 ---------------------------------------------------------------------

 SCF Done:  E(RB-P86) =  -548.358811303     A.U. after   10 cycles

 The electronic state is 1-A.
 Alpha  occ. eigenvalues --  -88.08326 -14.03057 -14.03057 -10.01796  -7.63832
 Alpha  occ. eigenvalues --   -5.66331  -5.65515  -5.65257  -0.90094  -0.81406
 Alpha  occ. eigenvalues --   -0.66165  -0.56335  -0.50495  -0.48817  -0.43682
 Alpha  occ. eigenvalues --   -0.37194  -0.33723  -0.24512  -0.20247  -0.19545
 Alpha virt. eigenvalues --   -0.03790   0.02153   0.03315   0.06343   0.08604
 Alpha virt. eigenvalues --    0.10192   0.13754   0.17035   0.20240   0.21072
 Alpha virt. eigenvalues --    0.24744   0.27829   0.28706   0.28961   0.31859

 Mulliken charges:
               1
     1  N   -0.360202
     2  C    0.055390
     3  N   -0.360202
     4  S   -0.510652
     5  H    0.292849
     6  H    0.294984
     7  H    0.294984
     8  H    0.292849
 Sum of Mulliken charges =  -0.00000

 Dipole moment (field-independent basis, Debye):
    X=              8.3229    Y=              0.0000    Z=             -0.0005  Tot=              8.3229
 Quadrupole moment (field-independent basis, Debye-Ang):
   XX=            -28.5750   YY=            -23.6452   ZZ=            -35.8052
   XY=              0.0000   XZ=             -0.0002   YZ=             -0.0002

 Normal termination of Gaussian 16 at Mon Feb 22 21:21:08 2021.
