 Gaussian 16, Revision C.01,

 -------------------------------------------------------------
 #P BP86/TZVP EmpiricalDispersion=GD3 SCRF=(Solvent=Water) Opt
 -------------------------------------------------------------

 -------------------------------------
 Particle #VCXBSHBJVUIQHJ-UHFFFAOYSA-N
 -------------------------------------
 Symbolic Z-matrix:
 Charge =  1 Multiplicity = 1

 SCF Done:  E(RB-P86) =  -559.980261936     A.U. after   13 cycles
 SCF Done:  E(RB-P86) =  -560.003040611     A.U. after   11 cycles
 SCF Done:  E(RB-P86) =  -560.004755973     A.U. after   10 cycles
 SCF Done:  E(RB-P86) =  -560.004790324     A.U. after   10 cycles
 SCF Done:  E(RB-P86) =  -560.004842069     A.U. after    9 cycles
 SCF Done:  E(RB-P86) =  -560.004848542     A.U. after    7 cycles
 SCF Done:  E(RB-P86) =  -559.967725804     A.U. after   13 cycles
 SCF Done:  E(RB-P86) =  -560.004091014     A.U. after   11 cycles
 SCF Done:  E(RB-P86) =  -560.004892292     A.U. after    8 cycles
 SCF Done:  E(RB-P86) =  -560.004844151     A.U. after    9 cycles
 SCF Done:  E(RB-P86) =  -560.004908314     A.U. after    9 cycles
 SCF Done:  E(RB-P86) =  -560.004915394     A.U. after    8 cycles
 SCF Done:  E(RB-P86) =  -560.004918803     A.U. after    8 cycles
 SCF Done:  E(RB-P86) =  -560.004920354     A.U. after    8 cycles
 SCF Done:  E(RB-P86) =  -560.004921169     A.U. after    7 cycles
 SCF Done:  E(RB-P86) =  -560.004921344     A.U. after    6 cycles
 SCF Done:  E(RB-P86) =  -560.004921581     A.U. after    6 cycles
 Optimization completed.
    -- Stationary point found.

 1\1\GINC-TCN1657\FOpt\RBP86\TZVP\C11H18N1O1(1+)\ELENAA\23-Feb-2021\0\\
 #P BP86/TZVP EmpiricalDispersion=GD3 SCRF=(Solvent=Water) Opt\\Particl
 e #VCXBSHBJVUIQHJ-UHFFFAOYSA-N\\1,1\C,-0.7218374461,-3.2436229497,3.67
 6818597\N,-1.6747519865,-2.0708869118,3.7193495958\C,-3.0014844772,-2.
 5403241706,4.2769504356\C,-1.1175398263,-0.997391398,4.6267015301\C,-1
 .9314279672,-1.5269307064,2.321421144\C,-0.6912318224,-1.0473588699,1.
 5709572429\O,-1.2105097321,-0.5616556691,0.3184817829\C,-0.2175958011,
 -0.0576196454,-0.5290747956\C,0.1315354645,1.2949771725,-0.4518833474\

 Normal termination of Gaussian 16 at Tue Feb 23 00:19:48 2021.
 Gaussian 16:  ES64L-G16RevC.01  3-Jul-2019

 ---------------------------------------------------------
 # BP86/TZVP SCRF=COSMORS geom=CHECKPOINT guess=CHECKPOINT
 ---------------------------------------------------------

 -------------------------------------------
 COSMO-file for #VCXBSHBJVUIQHJ-UHFFFAOYSA-N
 -------------------------------------------
 Structure from the checkpoint file:  "VCXBSHBJVUIQHJ-UHFFFAOYSA-N.chk"
 Charge =  1 Multiplicity = 1

                         Standard orientation:
 ---------------------------------------------------------------------
 Center     Atomic      Atomic             Coordinates (Angstroms)
 Number     Number       Type             X           Y           Z
 ---------------------------------------------------------------------
      1          6           0       -3.117015   -1.153291    1.085838
      2          7           0       -3.061042    0.007001    0.118494
      3          6           0       -4.244699   -0.083426   -0.820807
      4          6           0       -3.144200    1.308918    0.882864
      5          6           0       -1.797971   -0.050678   -0.728442
      6          6           0       -0.487050   -0.023040    0.053858
      7          8           0        0.527037   -0.052747   -0.968392
      8          6           0        1.827574   -0.022595   -0.452662
      9          6           0        2.454181    1.209672   -0.237605
     10          6           0        3.772924    1.233523    0.231926
     11          6           0        4.453490    0.035110    0.484890
     12          6           0        3.813826   -1.192162    0.266634
     13          6           0        2.494893   -1.226233   -0.202265
     14          1           0       -2.322563   -1.044084    1.830279
     15          1           0       -2.989366   -2.084521    0.523085
     16          1           0       -4.092738   -1.139531    1.582984
     17          1           0       -5.163554   -0.027173   -0.227611
     18          1           0       -4.197501    0.752396   -1.527175
     19          1           0       -4.196213   -1.038253   -1.355392
     20          1           0       -2.334149    1.351925    1.616808
     21          1           0       -3.061668    2.138843    0.172674
     22          1           0       -4.110015    1.342728    1.398207
     23          1           0       -1.835797    0.806629   -1.412440
     24          1           0       -1.854710   -0.974927   -1.317217
     25          1           0       -0.387030    0.892890    0.660290
     26          1           0       -0.383349   -0.900492    0.713901
     27          1           0        1.908417    2.131953   -0.446167
     28          1           0        4.270319    2.191670    0.395991
     29          1           0        5.482636    0.057686    0.848312
     30          1           0        4.342905   -2.127923    0.458453
     31          1           0        1.979660   -2.171636   -0.382674
 ---------------------------------------------------------------------

 SCF Done:  E(RB-P86) =  -559.986915623     A.U. after   12 cycles

 The electronic state is 1-A.
 Alpha  occ. eigenvalues --  -18.80186 -14.14170  -9.96536  -9.96203  -9.95932
 Alpha  occ. eigenvalues --   -9.94685  -9.94681  -9.94624  -9.90966  -9.90965
 Alpha  occ. eigenvalues --   -9.90816  -9.90812  -9.90599  -0.97870  -0.94118
 Alpha  occ. eigenvalues --   -0.78673  -0.72512  -0.68675  -0.68384  -0.68347
 Alpha  occ. eigenvalues --   -0.67373  -0.61800  -0.55990  -0.55947  -0.54256
 Alpha  occ. eigenvalues --   -0.49994  -0.48071  -0.47065  -0.46879  -0.44446
 Alpha  occ. eigenvalues --   -0.43904  -0.41631  -0.40975  -0.39848  -0.38450
 Alpha  occ. eigenvalues --   -0.38400  -0.38112  -0.36338  -0.36127  -0.36073
 Alpha  occ. eigenvalues --   -0.35949  -0.34431  -0.33934  -0.33037  -0.31573
 Alpha  occ. eigenvalues --   -0.31238  -0.24576  -0.23946  -0.23120
 Alpha virt. eigenvalues --   -0.05272  -0.04890  -0.00570   0.02168   0.03629
 Alpha virt. eigenvalues --    0.04584   0.04892   0.05171   0.05623   0.05685
 Alpha virt. eigenvalues --    0.06155   0.07680   0.07801   0.08124   0.09238

 Mulliken charges:
               1
     1  C   -0.313756
     2  N   -0.200880
     3  C   -0.272514
     4  C   -0.301669
     5  C   -0.163724
     6  C   -0.152179
     7  O   -0.255858
     8  C    0.102909
     9  C   -0.199354
    10  C   -0.113279
    11  C   -0.163270
    12  C   -0.114011
    13  C   -0.198896
    14  H    0.214519
    15  H    0.201399
    16  H    0.199831
    17  H    0.199442
    18  H    0.195567
    19  H    0.196110
    20  H    0.204297
    21  H    0.199714
    22  H    0.199637
    23  H    0.204459
    24  H    0.204756
    25  H    0.175947
    26  H    0.177341
    27  H    0.158085
    28  H    0.152104
    29  H    0.154937
    30  H    0.152002
    31  H    0.156333
 Sum of Mulliken charges =   1.00000

 Dipole moment (field-independent basis, Debye):
    X=            -14.4928    Y=              0.1011    Z=              2.4788  Tot=             14.7036
 Quadrupole moment (field-independent basis, Debye-Ang):
   XX=            -18.0656   YY=            -65.8109   ZZ=            -77.1617
   XY=             -0.0607   XZ=              1.4356   YZ=             -0.2255

 Normal termination of Gaussian 16 at Tue Feb 23 00:20:14 2021.
