 Gaussian 16, Revision C.01,

 -------------------------------------------------------------
 #P BP86/TZVP EmpiricalDispersion=GD3 SCRF=(Solvent=Water) Opt
 -------------------------------------------------------------

 -------------------------------------
 Particle #WQZGKKKJIJFFOK-MDMQIMBFSA-N
 -------------------------------------
 Symbolic Z-matrix:
 Charge =  0 Multiplicity = 1

 SCF Done:  E(RB-P86) =  -687.468536881     A.U. after   13 cycles
 SCF Done:  E(RB-P86) =  -687.483868221     A.U. after   11 cycles
 SCF Done:  E(RB-P86) =  -687.485870781     A.U. after   11 cycles
 SCF Done:  E(RB-P86) =  -687.486261525     A.U. after   10 cycles
 SCF Done:  E(RB-P86) =  -687.486397339     A.U. after   10 cycles
 SCF Done:  E(RB-P86) =  -687.486487976     A.U. after    9 cycles
 SCF Done:  E(RB-P86) =  -687.486505596     A.U. after    9 cycles
 SCF Done:  E(RB-P86) =  -687.486520930     A.U. after    9 cycles
 SCF Done:  E(RB-P86) =  -687.486527002     A.U. after    8 cycles
 SCF Done:  E(RB-P86) =  -687.486530004     A.U. after    8 cycles
 SCF Done:  E(RB-P86) =  -687.486530912     A.U. after    8 cycles
 SCF Done:  E(RB-P86) =  -687.486531063     A.U. after    7 cycles
 Optimization completed.
    -- Stationary point found.
 Normal termination of Gaussian 16 at Mon Feb 22 21:29:06 2021.
 Gaussian 16:  ES64L-G16RevC.01  3-Jul-2019

 ---------------------------------------------------------
 # BP86/TZVP SCRF=COSMORS geom=CHECKPOINT guess=CHECKPOINT
 ---------------------------------------------------------

 -------------------------------------------
 COSMO-file for #WQZGKKKJIJFFOK-MDMQIMBFSA-N
 -------------------------------------------
 Structure from the checkpoint file:  "WQZGKKKJIJFFOK-MDMQIMBFSA-N.chk"
 Charge =  0 Multiplicity = 1

                         Standard orientation:
 ---------------------------------------------------------------------
 Center     Atomic      Atomic             Coordinates (Angstroms)
 Number     Number       Type             X           Y           Z
 ---------------------------------------------------------------------
      1          8           0        3.492805   -0.679676    0.111041
      2          6           0        2.601840    0.328621   -0.401296
      3          6           0        1.196638    0.026625    0.082808
      4          8           0        0.733606   -1.149418   -0.629022
      5          6           0       -0.567773   -1.593780   -0.227581
      6          8           0       -0.634494   -1.922464    1.149460
      7          6           0       -1.594537   -0.480425   -0.516989
      8          8           0       -2.927580   -0.799028   -0.089118
      9          6           0       -1.186728    0.801638    0.205523
     10          8           0       -2.038087    1.904672   -0.153449
     11          6           0        0.238883    1.201010   -0.170304
     12          8           0        0.682265    2.319941    0.614733
     13          1           0        4.389999   -0.455699   -0.192568
     14          1           0        2.880859    1.332534   -0.036872
     15          1           0        2.602428    0.341910   -1.507793
     16          1           0        1.223165   -0.181245    1.167378
     17          1           0       -0.758843   -2.476390   -0.861099
     18          1           0       -0.076650   -2.709717    1.290455
     19          1           0       -1.568187   -0.290963   -1.604702
     20          1           0       -3.343619   -1.352174   -0.773627
     21          1           0       -1.226337    0.626688    1.297303
     22          1           0       -2.951046    1.626593    0.050865
     23          1           0        0.255739    1.454200   -1.249626
     24          1           0       -0.025554    2.989915    0.558173
 ---------------------------------------------------------------------

 SCF Done:  E(RB-P86) =  -687.472216468     A.U. after   10 cycles

 The electronic state is 1-A.
 Alpha  occ. eigenvalues --  -18.79213 -18.78673 -18.78434 -18.78106 -18.78065
 Alpha  occ. eigenvalues --  -18.77446 -10.00172  -9.95874  -9.95849  -9.95716
 Alpha  occ. eigenvalues --   -9.95597  -9.94569  -0.99273  -0.96070  -0.94998
 Alpha  occ. eigenvalues --   -0.93922  -0.93230  -0.92608  -0.72456  -0.71109
 Alpha  occ. eigenvalues --   -0.63084  -0.58960  -0.56176  -0.53363  -0.50241
 Alpha  occ. eigenvalues --   -0.49274  -0.47762  -0.46292  -0.44839  -0.44569
 Alpha  occ. eigenvalues --   -0.42382  -0.40509  -0.38767  -0.37840  -0.36993
 Alpha  occ. eigenvalues --   -0.36735  -0.34942  -0.33519  -0.31869  -0.31284
 Alpha  occ. eigenvalues --   -0.29988  -0.28742  -0.26631  -0.25988  -0.24850
 Alpha  occ. eigenvalues --   -0.24588  -0.23801  -0.22800
 Alpha virt. eigenvalues --    0.00300   0.01811   0.02734   0.03134   0.03822
 Alpha virt. eigenvalues --    0.05776   0.07372   0.07399   0.08581   0.09010
 Alpha virt. eigenvalues --    0.10573   0.10908   0.11506   0.12338   0.12769

 Mulliken charges:
               1
     1  O   -0.420768
     2  C   -0.173876
     3  C    0.037180
     4  O   -0.232694
     5  C   -0.088178
     6  O   -0.353232
     7  C   -0.096437
     8  O   -0.402993
     9  C   -0.074818
    10  O   -0.401489
    11  C   -0.093574
    12  O   -0.391146
    13  H    0.316485
    14  H    0.151469
    15  H    0.133284
    16  H    0.143534
    17  H    0.188866
    18  H    0.315467
    19  H    0.177591
    20  H    0.324823
    21  H    0.164854
    22  H    0.312042
    23  H    0.153225
    24  H    0.310384
 Sum of Mulliken charges =  -0.00000

 Dipole moment (field-independent basis, Debye):
    X=             -1.1041    Y=             -1.2724    Z=             -3.1839  Tot=              3.6021
 Quadrupole moment (field-independent basis, Debye-Ang):
   XX=            -59.6911   YY=            -67.3150   ZZ=            -72.1773
   XY=              5.2325   XZ=              2.0548   YZ=              1.3224

 Normal termination of Gaussian 16 at Mon Feb 22 21:29:22 2021.
