 Gaussian 16, Revision C.01,

 -------------------------------------------------------------
 #P BP86/TZVP EmpiricalDispersion=GD3 SCRF=(Solvent=Water) Opt
 -------------------------------------------------------------

 -------------------------------------
 Particle #WQZGKKKJIJFFOK-HGVZOGFYSA-N
 -------------------------------------
 Symbolic Z-matrix:
 Charge =  0 Multiplicity = 1

 SCF Done:  E(RB-P86) =  -687.467276759     A.U. after   13 cycles
 SCF Done:  E(RB-P86) =  -687.481756418     A.U. after   11 cycles
 SCF Done:  E(RB-P86) =  -687.483645083     A.U. after   11 cycles
 SCF Done:  E(RB-P86) =  -687.484039598     A.U. after   10 cycles
 SCF Done:  E(RB-P86) =  -687.484216665     A.U. after   10 cycles
 SCF Done:  E(RB-P86) =  -687.484390086     A.U. after   10 cycles
 SCF Done:  E(RB-P86) =  -687.484443271     A.U. after    9 cycles
 SCF Done:  E(RB-P86) =  -687.484469861     A.U. after    9 cycles
 SCF Done:  E(RB-P86) =  -687.484476504     A.U. after    9 cycles
 SCF Done:  E(RB-P86) =  -687.484481961     A.U. after    8 cycles
 SCF Done:  E(RB-P86) =  -687.484483190     A.U. after    8 cycles
 Optimization completed.
    -- Stationary point found.
 Normal termination of Gaussian 16 at Mon Feb 22 21:28:47 2021.
 Gaussian 16:  ES64L-G16RevC.01  3-Jul-2019

 ---------------------------------------------------------
 # BP86/TZVP SCRF=COSMORS geom=CHECKPOINT guess=CHECKPOINT
 ---------------------------------------------------------

 -------------------------------------------
 COSMO-file for #WQZGKKKJIJFFOK-HGVZOGFYSA-N
 -------------------------------------------
 Structure from the checkpoint file:  "WQZGKKKJIJFFOK-HGVZOGFYSA-N.chk"
 Charge =  0 Multiplicity = 1

                         Standard orientation:
 ---------------------------------------------------------------------
 Center     Atomic      Atomic             Coordinates (Angstroms)
 Number     Number       Type             X           Y           Z
 ---------------------------------------------------------------------
      1          8           0        3.472571   -0.258878   -0.025555
      2          6           0        2.404530    0.567834   -0.525472
      3          6           0        1.104319    0.130918    0.122357
      4          8           0        0.756243   -1.161845   -0.431862
      5          6           0       -0.456368   -1.711866    0.073386
      6          8           0       -0.409362   -1.964771    1.473377
      7          6           0       -1.658259   -0.771487   -0.174397
      8          8           0       -1.882706   -0.603105   -1.580152
      9          6           0       -1.336904    0.598136    0.435220
     10          8           0       -2.344050    1.595279    0.177052
     11          6           0       -0.025202    1.144922   -0.128499
     12          8           0        0.328217    2.374753    0.526278
     13          1           0        4.297138    0.049903   -0.440397
     14          1           0        2.571063    1.630384   -0.276859
     15          1           0        2.302921    0.473499   -1.623272
     16          1           0        1.255157    0.040224    1.213624
     17          1           0       -0.581472   -2.647004   -0.499687
     18          1           0        0.288975   -2.627668    1.628952
     19          1           0       -2.547639   -1.199554    0.322043
     20          1           0       -2.231553   -1.442574   -1.929928
     21          1           0       -1.204950    0.460449    1.523068
     22          1           0       -3.070470    1.462498    0.811422
     23          1           0       -0.140891    1.301756   -1.217614
     24          1           0       -0.498274    2.895883    0.559971
 ---------------------------------------------------------------------

 SCF Done:  E(RB-P86) =  -687.470855768     A.U. after   11 cycles

 The electronic state is 1-A.
 Alpha  occ. eigenvalues --  -18.79165 -18.78665 -18.78297 -18.78026 -18.77832
 Alpha  occ. eigenvalues --  -18.77439 -10.00181  -9.95811  -9.95745  -9.95672
 Alpha  occ. eigenvalues --   -9.95573  -9.94526  -0.99284  -0.95996  -0.94574
 Alpha  occ. eigenvalues --   -0.94002  -0.93268  -0.92542  -0.72418  -0.70892
 Alpha  occ. eigenvalues --   -0.63180  -0.58941  -0.56283  -0.53206  -0.49704
 Alpha  occ. eigenvalues --   -0.48717  -0.47565  -0.46368  -0.46237  -0.42874
 Alpha  occ. eigenvalues --   -0.42503  -0.40925  -0.38956  -0.37830  -0.37121
 Alpha  occ. eigenvalues --   -0.36728  -0.34884  -0.33020  -0.32314  -0.31052
 Alpha  occ. eigenvalues --   -0.29898  -0.28527  -0.26787  -0.25216  -0.25028
 Alpha  occ. eigenvalues --   -0.24170  -0.23599  -0.23178
 Alpha virt. eigenvalues --    0.00724   0.02012   0.02318   0.02814   0.04075
 Alpha virt. eigenvalues --    0.06323   0.06553   0.07703   0.08259   0.09758
 Alpha virt. eigenvalues --    0.10379   0.10964   0.11640   0.11937   0.12114

 Mulliken charges:
               1
     1  O   -0.421813
     2  C   -0.177631
     3  C    0.024458
     4  O   -0.207297
     5  C   -0.143956
     6  O   -0.362888
     7  C   -0.077979
     8  O   -0.387518
     9  C   -0.081031
    10  O   -0.413889
    11  C   -0.097644
    12  O   -0.391349
    13  H    0.316379
    14  H    0.151552
    15  H    0.132988
    16  H    0.142961
    17  H    0.197355
    18  H    0.315079
    19  H    0.190221
    20  H    0.313593
    21  H    0.197237
    22  H    0.323477
    23  H    0.153246
    24  H    0.304452
 Sum of Mulliken charges =  -0.00000

 Dipole moment (field-independent basis, Debye):
    X=             -2.2183    Y=             -2.2530    Z=              0.5245  Tot=              3.2050
 Quadrupole moment (field-independent basis, Debye-Ang):
   XX=            -58.5239   YY=            -65.1531   ZZ=            -72.2894
   XY=              6.3345   XZ=             -7.9001   YZ=              2.1636

 Normal termination of Gaussian 16 at Mon Feb 22 21:29:05 2021.
