 Gaussian 16, Revision C.01,

 -------------------------------------------------------------
 #P BP86/TZVP EmpiricalDispersion=GD3 SCRF=(Solvent=Water) Opt
 -------------------------------------------------------------

 -------------------------------------
 Particle #WWZKQHOCKIZLMA-UHFFFAOYSA-N
 -------------------------------------
 Symbolic Z-matrix:
 Charge =  0 Multiplicity = 1

 SCF Done:  E(RB-P86) =  -465.141215949     A.U. after   13 cycles
 SCF Done:  E(RB-P86) =  -465.151110422     A.U. after   10 cycles
 SCF Done:  E(RB-P86) =  -465.152006968     A.U. after   10 cycles
 SCF Done:  E(RB-P86) =  -465.152102908     A.U. after    9 cycles
 SCF Done:  E(RB-P86) =  -465.152097535     A.U. after   10 cycles
 SCF Done:  E(RB-P86) =  -465.152108662     A.U. after    9 cycles
 SCF Done:  E(RB-P86) =  -465.152115494     A.U. after    8 cycles
 SCF Done:  E(RB-P86) =  -465.152119300     A.U. after    8 cycles
 SCF Done:  E(RB-P86) =  -465.152140912     A.U. after   10 cycles
 SCF Done:  E(RB-P86) =  -465.152231242     A.U. after   10 cycles
 SCF Done:  E(RB-P86) =  -465.152698245     A.U. after   12 cycles
 SCF Done:  E(RB-P86) =  -465.152857720     A.U. after   10 cycles
 SCF Done:  E(RB-P86) =  -465.152969003     A.U. after   10 cycles
 SCF Done:  E(RB-P86) =  -465.153048560     A.U. after    9 cycles
 SCF Done:  E(RB-P86) =  -465.153059178     A.U. after    8 cycles
 SCF Done:  E(RB-P86) =  -465.153065138     A.U. after    9 cycles
 SCF Done:  E(RB-P86) =  -465.153067586     A.U. after    8 cycles
 SCF Done:  E(RB-P86) =  -465.153068492     A.U. after    8 cycles
 SCF Done:  E(RB-P86) =  -465.153068471     A.U. after    6 cycles
 Optimization completed.
    -- Stationary point found.
 Normal termination of Gaussian 16 at Mon Feb 22 21:30:33 2021.
 Gaussian 16:  ES64L-G16RevC.01  3-Jul-2019

 ---------------------------------------------------------
 # BP86/TZVP SCRF=COSMORS geom=CHECKPOINT guess=CHECKPOINT
 ---------------------------------------------------------

 -------------------------------------------
 COSMO-file for #WWZKQHOCKIZLMA-UHFFFAOYSA-N
 -------------------------------------------
 Structure from the checkpoint file:  "WWZKQHOCKIZLMA-UHFFFAOYSA-N.chk"
 Charge =  0 Multiplicity = 1

                         Standard orientation:
 ---------------------------------------------------------------------
 Center     Atomic      Atomic             Coordinates (Angstroms)
 Number     Number       Type             X           Y           Z
 ---------------------------------------------------------------------
      1          6           0       -5.409438   -0.244491   -0.000112
      2          6           0       -4.092875    0.542292    0.000123
      3          6           0       -2.853041   -0.362347   -0.000069
      4          6           0       -1.529256    0.412862    0.000157
      5          6           0       -0.292219   -0.494460   -0.000038
      6          6           0        1.027129    0.287905    0.000122
      7          6           0        2.248412   -0.632872   -0.000084
      8          6           0        3.567990    0.103881   -0.000044
      9          8           0        3.716289    1.316195   -0.000201
     10          8           0        4.622691   -0.763559    0.000148
     11          1           0       -5.482484   -0.892244    0.888590
     12          1           0       -5.482445   -0.891767   -0.889165
     13          1           0       -6.283303    0.425165    0.000049
     14          1           0       -4.056503    1.205093    0.882954
     15          1           0       -4.056452    1.205537   -0.882373
     16          1           0       -2.887469   -1.026676    0.883041
     17          1           0       -2.887422   -1.026237   -0.883512
     18          1           0       -1.494704    1.076109    0.883727
     19          1           0       -1.494656    1.076528   -0.883097
     20          1           0       -0.325896   -1.157894    0.883232
     21          1           0       -0.325900   -1.157500   -0.883606
     22          1           0        1.068111    0.948209    0.882300
     23          1           0        1.068110    0.948579   -0.881777
     24          1           0        2.242153   -1.301775    0.877604
     25          1           0        2.242017   -1.301440   -0.878030
     26          1           0        5.444796   -0.227398    0.000151
 ---------------------------------------------------------------------

 SCF Done:  E(RB-P86) =  -465.136000109     A.U. after   10 cycles

 The electronic state is 1-A.
 Alpha  occ. eigenvalues --  -18.81848 -18.76989 -10.03211  -9.91013  -9.89451
 Alpha  occ. eigenvalues --   -9.88894  -9.88735  -9.88619  -9.88522  -9.88062
 Alpha  occ. eigenvalues --   -1.02056  -0.93886  -0.73890  -0.71623  -0.67816
 Alpha  occ. eigenvalues --   -0.62953  -0.57841  -0.53470  -0.51598  -0.51140
 Alpha  occ. eigenvalues --   -0.44967  -0.44078  -0.43389  -0.42170  -0.39574
 Alpha  occ. eigenvalues --   -0.38373  -0.37029  -0.36434  -0.35739  -0.33489
 Alpha  occ. eigenvalues --   -0.33007  -0.32598  -0.30080  -0.29912  -0.29219
 Alpha  occ. eigenvalues --   -0.28440  -0.28126  -0.27577  -0.27242  -0.24801
 Alpha virt. eigenvalues --   -0.04544   0.02202   0.02918   0.03847   0.05370
 Alpha virt. eigenvalues --    0.05471   0.05989   0.07609   0.08330   0.09508
 Alpha virt. eigenvalues --    0.10746   0.11394   0.11422   0.12007   0.12265

 Mulliken charges:
               1
     1  C   -0.418797
     2  C   -0.228261
     3  C   -0.263094
     4  C   -0.239937
     5  C   -0.268330
     6  C   -0.261792
     7  C   -0.266754
     8  C    0.203215
     9  O   -0.364236
    10  O   -0.286823
    11  H    0.131794
    12  H    0.131784
    13  H    0.144652
    14  H    0.126984
    15  H    0.126976
    16  H    0.123656
    17  H    0.123649
    18  H    0.125994
    19  H    0.125994
    20  H    0.130936
    21  H    0.130929
    22  H    0.138395
    23  H    0.138381
    24  H    0.182428
    25  H    0.182463
    26  H    0.329795
 Sum of Mulliken charges =  -0.00000

 Dipole moment (field-independent basis, Debye):
    X=             -0.2545    Y=             -2.2028    Z=             -0.0001  Tot=              2.2174
 Quadrupole moment (field-independent basis, Debye-Ang):
   XX=            -60.2200   YY=            -70.7462   ZZ=            -62.5814
   XY=             -6.8225   XZ=              0.0008   YZ=              0.0009

 Normal termination of Gaussian 16 at Mon Feb 22 21:30:46 2021.
