 Gaussian 16, Revision C.01,

 -------------------------------------------------------------
 #P BP86/TZVP EmpiricalDispersion=GD3 SCRF=(Solvent=Water) Opt
 -------------------------------------------------------------

 -------------------------------------
 Particle #XBDQKXXYIPTUBI-UHFFFAOYSA-N
 -------------------------------------
 Symbolic Z-matrix:
 Charge =  0 Multiplicity = 1

 SCF Done:  E(RB-P86) =  -268.506661146     A.U. after   13 cycles
 SCF Done:  E(RB-P86) =  -268.515405694     A.U. after   10 cycles
 SCF Done:  E(RB-P86) =  -268.516014941     A.U. after   10 cycles
 SCF Done:  E(RB-P86) =  -268.515876155     A.U. after   10 cycles
 SCF Done:  E(RB-P86) =  -268.516169481     A.U. after    9 cycles
 SCF Done:  E(RB-P86) =  -268.516171544     A.U. after    8 cycles
 SCF Done:  E(RB-P86) =  -268.516171963     A.U. after    7 cycles
 SCF Done:  E(RB-P86) =  -268.516172079     A.U. after    7 cycles
 SCF Done:  E(RB-P86) =  -268.516172296     A.U. after    7 cycles
 SCF Done:  E(RB-P86) =  -268.516172344     A.U. after    8 cycles
 SCF Done:  E(RB-P86) =  -268.516172633     A.U. after    9 cycles
 SCF Done:  E(RB-P86) =  -268.516171935     A.U. after    9 cycles
 SCF Done:  E(RB-P86) =  -268.516171753     A.U. after    9 cycles
 SCF Done:  E(RB-P86) =  -268.516172588     A.U. after    9 cycles
 SCF Done:  E(RB-P86) =  -268.516172383     A.U. after    9 cycles
 SCF Done:  E(RB-P86) =  -268.516172309     A.U. after    7 cycles
 SCF Done:  E(RB-P86) =  -268.516173153     A.U. after    9 cycles
 SCF Done:  E(RB-P86) =  -268.516172290     A.U. after    9 cycles
 Optimization completed.
    -- Stationary point found.
 Normal termination of Gaussian 16 at Mon Feb 22 21:28:02 2021.
 Gaussian 16:  ES64L-G16RevC.01  3-Jul-2019

 ---------------------------------------------------------
 # BP86/TZVP SCRF=COSMORS geom=CHECKPOINT guess=CHECKPOINT
 ---------------------------------------------------------

 -------------------------------------------
 COSMO-file for #XBDQKXXYIPTUBI-UHFFFAOYSA-N
 -------------------------------------------
 Structure from the checkpoint file:  "XBDQKXXYIPTUBI-UHFFFAOYSA-N.chk"
 Charge =  0 Multiplicity = 1

                         Standard orientation:
 ---------------------------------------------------------------------
 Center     Atomic      Atomic             Coordinates (Angstroms)
 Number     Number       Type             X           Y           Z
 ---------------------------------------------------------------------
      1          6           0        1.882212    0.145500   -0.321877
      2          6           0        0.760327   -0.567852    0.452121
      3          6           0       -0.630252   -0.125529    0.054863
      4          8           0       -1.541455   -0.864570   -0.288535
      5          8           0       -0.778001    1.228543    0.129837
      6          1           0        1.787589   -0.028382   -1.403841
      7          1           0        2.860863   -0.237056    0.000314
      8          1           0        1.859825    1.229146   -0.143993
      9          1           0        0.804914   -1.655270    0.308240
     10          1           0        0.868404   -0.371292    1.532184
     11          1           0       -1.699669    1.438359   -0.133958
 ---------------------------------------------------------------------

 SCF Done:  E(RB-P86) =  -268.514482034     A.U. after   10 cycles

 The electronic state is 1-A.
 Alpha  occ. eigenvalues --  -18.81959 -18.76947 -10.03223  -9.91242  -9.89384
 Alpha  occ. eigenvalues --   -1.02140  -0.93869  -0.71734  -0.60513  -0.54593
 Alpha  occ. eigenvalues --   -0.44761  -0.43717  -0.41639  -0.38874  -0.36648
 Alpha  occ. eigenvalues --   -0.34059  -0.32663  -0.31205  -0.29211  -0.24546
 Alpha virt. eigenvalues --   -0.04808   0.02221   0.05755   0.07130   0.08623
 Alpha virt. eigenvalues --    0.09902   0.11027   0.13160   0.14895   0.16039
 Alpha virt. eigenvalues --    0.19069   0.19889   0.21941   0.23051   0.25634

 Mulliken charges:
               1
     1  C   -0.425914
     2  C   -0.259039
     3  C    0.215974
     4  O   -0.370433
     5  O   -0.286318
     6  H    0.145550
     7  H    0.159599
     8  H    0.149623
     9  H    0.161221
    10  H    0.179090
    11  H    0.330648
 Sum of Mulliken charges =  -0.00000

 Dipole moment (field-independent basis, Debye):
    X=              1.7117    Y=              1.6016    Z=              0.6226  Tot=              2.4254
 Quadrupole moment (field-independent basis, Debye-Ang):
   XX=            -30.0780   YY=            -31.8779   ZZ=            -29.8996
   XY=             -6.7684   XZ=             -0.2004   YZ=             -1.6938

 Normal termination of Gaussian 16 at Mon Feb 22 21:28:06 2021.
