 Gaussian 16, Revision C.01,

 -------------------------------------------------------------
 #P BP86/TZVP EmpiricalDispersion=GD3 SCRF=(Solvent=Water) Opt
 -------------------------------------------------------------

 -------------------------------------
 Particle #XGEGHDBEHXKFPX-UHFFFAOYSA-N
 -------------------------------------
 Symbolic Z-matrix:
 Charge =  0 Multiplicity = 1

 SCF Done:  E(RB-P86) =  -264.689595922     A.U. after   12 cycles
 SCF Done:  E(RB-P86) =  -264.698361351     A.U. after   10 cycles
 SCF Done:  E(RB-P86) =  -264.698587434     A.U. after   10 cycles
 SCF Done:  E(RB-P86) =  -264.698606997     A.U. after    9 cycles
 SCF Done:  E(RB-P86) =  -264.698607714     A.U. after    8 cycles
 SCF Done:  E(RB-P86) =  -264.698608941     A.U. after    7 cycles
 SCF Done:  E(RB-P86) =  -264.698609190     A.U. after    6 cycles
 SCF Done:  E(RB-P86) =  -264.698610026     A.U. after    8 cycles
 SCF Done:  E(RB-P86) =  -264.698610860     A.U. after    8 cycles
 SCF Done:  E(RB-P86) =  -264.698612554     A.U. after    9 cycles
 SCF Done:  E(RB-P86) =  -264.699382709     A.U. after    9 cycles
 SCF Done:  E(RB-P86) =  -264.699397868     A.U. after   10 cycles
 SCF Done:  E(RB-P86) =  -264.699417176     A.U. after    9 cycles
 SCF Done:  E(RB-P86) =  -264.699454758     A.U. after    9 cycles
 SCF Done:  E(RB-P86) =  -264.699468987     A.U. after    9 cycles
 SCF Done:  E(RB-P86) =  -264.699471568     A.U. after    8 cycles
 SCF Done:  E(RB-P86) =  -264.699472305     A.U. after    8 cycles
 SCF Done:  E(RB-P86) =  -264.699472523     A.U. after    8 cycles
 SCF Done:  E(RB-P86) =  -264.699472465     A.U. after    7 cycles
 Optimization completed.
    -- Stationary point found.
 Normal termination of Gaussian 16 at Mon Feb 22 21:31:45 2021.
 Gaussian 16:  ES64L-G16RevC.01  3-Jul-2019

 ---------------------------------------------------------
 # BP86/TZVP SCRF=COSMORS geom=CHECKPOINT guess=CHECKPOINT
 ---------------------------------------------------------

 -------------------------------------------
 COSMO-file for #XGEGHDBEHXKFPX-UHFFFAOYSA-N
 -------------------------------------------
 Structure from the checkpoint file:  "XGEGHDBEHXKFPX-UHFFFAOYSA-N.chk"
 Charge =  0 Multiplicity = 1

                         Standard orientation:
 ---------------------------------------------------------------------
 Center     Atomic      Atomic             Coordinates (Angstroms)
 Number     Number       Type             X           Y           Z
 ---------------------------------------------------------------------
      1          6           0       -1.936533   -0.043269    0.028689
      2          7           0       -0.613307   -0.646717   -0.080588
      3          6           0        0.519940    0.125256   -0.010258
      4          7           0        1.714209   -0.577676    0.094721
      5          8           0        0.486355    1.368880   -0.012454
      6          1           0       -2.002026    0.826145   -0.638284
      7          1           0       -2.686630   -0.782174   -0.279720
      8          1           0       -2.162942    0.289788    1.056107
      9          1           0       -0.538315   -1.640044    0.120662
     10          1           0        2.538468   -0.027201   -0.130428
     11          1           0        1.753858   -1.538725   -0.238224
 ---------------------------------------------------------------------

 SCF Done:  E(RB-P86) =  -264.701395390     A.U. after   10 cycles

 The electronic state is 1-A.
 Alpha  occ. eigenvalues --  -18.73533 -14.02165 -14.01059 -10.01559  -9.92193
 Alpha  occ. eigenvalues --   -0.95956  -0.84640  -0.80977  -0.63650  -0.53482
 Alpha  occ. eigenvalues --   -0.49992  -0.46669  -0.40578  -0.39986  -0.38137
 Alpha  occ. eigenvalues --   -0.35349  -0.34436  -0.24456  -0.23119  -0.21891
 Alpha virt. eigenvalues --    0.00345   0.02304   0.05077   0.06848   0.09431
 Alpha virt. eigenvalues --    0.10168   0.11341   0.13057   0.14256   0.18347
 Alpha virt. eigenvalues --    0.19625   0.21715   0.22413   0.23916   0.27432

 Mulliken charges:
               1
     1  C   -0.318963
     2  N   -0.307671
     3  C    0.235980
     4  N   -0.417931
     5  O   -0.492538
     6  H    0.150903
     7  H    0.160527
     8  H    0.153104
     9  H    0.290835
    10  H    0.271493
    11  H    0.274262
 Sum of Mulliken charges =  -0.00000

 Dipole moment (field-independent basis, Debye):
    X=             -0.3279    Y=             -5.8289    Z=             -0.5946  Tot=              5.8684
 Quadrupole moment (field-independent basis, Debye-Ang):
   XX=            -22.2120   YY=            -31.4414   ZZ=            -32.4599
   XY=             -2.2436   XZ=             -2.4409   YZ=              0.4098

 Normal termination of Gaussian 16 at Mon Feb 22 21:31:49 2021.
