 Gaussian 16, Revision C.01,

 -------------------------------------------------------------
 #P BP86/TZVP EmpiricalDispersion=GD3 SCRF=(Solvent=Water) Opt
 -------------------------------------------------------------

 -------------------------------------
 Particle #XLYOFNOQVPJJNP-UHFFFAOYSA-N
 -------------------------------------
 Symbolic Z-matrix:
 Charge =  0 Multiplicity = 1

 SCF Done:  E(RB-P86) =  -76.4683207765     A.U. after    8 cycles
 SCF Done:  E(RB-P86) =  -76.4684295775     A.U. after    7 cycles
 SCF Done:  E(RB-P86) =  -76.4684306800     A.U. after    6 cycles
 Optimization completed.
    -- Stationary point found.
 Normal termination of Gaussian 16 at Mon Feb 22 21:28:39 2021.
 Gaussian 16:  ES64L-G16RevC.01  3-Jul-2019

 ---------------------------------------------------------
 # BP86/TZVP SCRF=COSMORS geom=CHECKPOINT guess=CHECKPOINT
 ---------------------------------------------------------

 -------------------------------------------
 COSMO-file for #XLYOFNOQVPJJNP-UHFFFAOYSA-N
 -------------------------------------------
 Structure from the checkpoint file:  "XLYOFNOQVPJJNP-UHFFFAOYSA-N.chk"
 Charge =  0 Multiplicity = 1

                         Standard orientation:
 ---------------------------------------------------------------------
 Center     Atomic      Atomic             Coordinates (Angstroms)
 Number     Number       Type             X           Y           Z
 ---------------------------------------------------------------------
      1          8           0        0.000000    0.000000    0.120343
      2          1           0       -0.000000    0.764827   -0.481372
      3          1           0       -0.000000   -0.764827   -0.481372
 ---------------------------------------------------------------------

 SCF Done:  E(RB-P86) =  -76.4731936263     A.U. after    7 cycles

 The electronic state is 1-A1.
 Alpha  occ. eigenvalues --  -18.76529  -0.92161  -0.47205  -0.34173  -0.26390
 Alpha virt. eigenvalues --    0.01979   0.09964   0.32837   0.37372   0.38351
 Alpha virt. eigenvalues --    0.39697   0.53462   0.56889   1.23724   1.28358
 Alpha virt. eigenvalues --    1.45426   1.64815   1.87981   1.95396   2.14603

 Mulliken charges:
               1
     1  O   -0.631926
     2  H    0.315963
     3  H    0.315963
 Sum of Mulliken charges =   0.00000

 Dipole moment (field-independent basis, Debye):
    X=             -0.0000    Y=             -0.0000    Z=             -2.5184  Tot=              2.5184
 Quadrupole moment (field-independent basis, Debye-Ang):
   XX=             -7.6899   YY=             -4.2573   ZZ=             -6.3279
   XY=              0.0000   XZ=              0.0000   YZ=              0.0000

 Normal termination of Gaussian 16 at Mon Feb 22 21:28:41 2021.
