 Gaussian 16, Revision C.01,

 -------------------------------------------------------------
 #P BP86/TZVP EmpiricalDispersion=GD3 SCRF=(Solvent=Water) Opt
 -------------------------------------------------------------

 -------------------------------------
 Particle #XMGQYMWWDOXHJM-SNVBAGLBSA-N
 -------------------------------------
 Symbolic Z-matrix:
 Charge =  0 Multiplicity = 1

 SCF Done:  E(RB-P86) =  -390.779197081     A.U. after   13 cycles
 SCF Done:  E(RB-P86) =  -390.808378600     A.U. after   11 cycles
 SCF Done:  E(RB-P86) =  -390.811080925     A.U. after   11 cycles
 SCF Done:  E(RB-P86) =  -390.811191452     A.U. after    9 cycles
 SCF Done:  E(RB-P86) =  -390.811212010     A.U. after    8 cycles
 SCF Done:  E(RB-P86) =  -390.811221724     A.U. after    8 cycles
 SCF Done:  E(RB-P86) =  -390.811226461     A.U. after    8 cycles
 SCF Done:  E(RB-P86) =  -390.811228181     A.U. after    7 cycles
 SCF Done:  E(RB-P86) =  -390.811228607     A.U. after    8 cycles
 SCF Done:  E(RB-P86) =  -390.811228256     A.U. after    9 cycles
 SCF Done:  E(RB-P86) =  -390.812315110     A.U. after   10 cycles
 SCF Done:  E(RB-P86) =  -390.812355692     A.U. after    9 cycles
 SCF Done:  E(RB-P86) =  -390.812393945     A.U. after    9 cycles
 SCF Done:  E(RB-P86) =  -390.812410161     A.U. after   10 cycles
 SCF Done:  E(RB-P86) =  -390.812417248     A.U. after    8 cycles
 SCF Done:  E(RB-P86) =  -390.812421068     A.U. after    8 cycles
 SCF Done:  E(RB-P86) =  -390.812421892     A.U. after    7 cycles
 SCF Done:  E(RB-P86) =  -390.812422075     A.U. after    7 cycles
 SCF Done:  E(RB-P86) =  -390.812422073     A.U. after    6 cycles
 Optimization completed.
    -- Stationary point found.
 Normal termination of Gaussian 16 at Mon Feb 22 21:36:27 2021.
 Gaussian 16:  ES64L-G16RevC.01  3-Jul-2019

 ---------------------------------------------------------
 # BP86/TZVP SCRF=COSMORS geom=CHECKPOINT guess=CHECKPOINT
 ---------------------------------------------------------

 -------------------------------------------
 COSMO-file for #XMGQYMWWDOXHJM-SNVBAGLBSA-N
 -------------------------------------------
 Structure from the checkpoint file:  "XMGQYMWWDOXHJM-SNVBAGLBSA-N.chk"
 Charge =  0 Multiplicity = 1

                         Standard orientation:
 ---------------------------------------------------------------------
 Center     Atomic      Atomic             Coordinates (Angstroms)
 Number     Number       Type             X           Y           Z
 ---------------------------------------------------------------------
      1          6           0       -2.816152    1.109895    0.601951
      2          6           0       -2.219041    0.099775   -0.053360
      3          6           0       -3.018634   -1.062744   -0.595090
      4          6           0       -0.719660    0.028426   -0.291989
      5          6           0       -0.090816   -1.160760    0.478690
      6          6           0        1.416267   -1.162779    0.421248
      7          6           0        2.164317   -0.125427    0.004683
      8          6           0        3.666778   -0.188923   -0.083930
      9          6           0        1.526392    1.183052   -0.410470
     10          6           0        0.063431    1.307351    0.037604
     11          1           0       -3.898355    1.117744    0.757256
     12          1           0       -2.259703    1.957737    1.005533
     13          1           0       -2.802553   -1.221874   -1.665077
     14          1           0       -4.099772   -0.902929   -0.477620
     15          1           0       -2.758183   -2.002469   -0.080452
     16          1           0       -0.574940   -0.179284   -1.371353
     17          1           0       -0.468454   -2.115751    0.076962
     18          1           0       -0.431624   -1.126209    1.532045
     19          1           0        1.915368   -2.087434    0.734694
     20          1           0        4.008290    0.039546   -1.108821
     21          1           0        4.055676   -1.179378    0.194629
     22          1           0        4.133365    0.564782    0.574044
     23          1           0        2.118463    2.021050   -0.001763
     24          1           0        1.598578    1.284037   -1.510657
     25          1           0       -0.404416    2.181112   -0.442902
     26          1           0        0.030963    1.482127    1.127453
 ---------------------------------------------------------------------

 SCF Done:  E(RB-P86) =  -390.789450043     A.U. after   11 cycles

 The electronic state is 1-A.
 Alpha  occ. eigenvalues --   -9.90682  -9.90152  -9.89777  -9.89485  -9.89210
 Alpha  occ. eigenvalues --   -9.88862  -9.88719  -9.88629  -9.88482  -9.87964
 Alpha  occ. eigenvalues --   -0.76922  -0.72886  -0.67845  -0.66969  -0.61677
 Alpha  occ. eigenvalues --   -0.60878  -0.55469  -0.53931  -0.47148  -0.45469
 Alpha  occ. eigenvalues --   -0.42768  -0.39926  -0.39538  -0.38643  -0.37767
 Alpha  occ. eigenvalues --   -0.36456  -0.36283  -0.35589  -0.34062  -0.32481
 Alpha  occ. eigenvalues --   -0.32038  -0.31723  -0.30866  -0.28433  -0.27224
 Alpha  occ. eigenvalues --   -0.26669  -0.22116  -0.20555
 Alpha virt. eigenvalues --   -0.02389  -0.01475   0.02355   0.03888   0.05387
 Alpha virt. eigenvalues --    0.05841   0.06793   0.08007   0.08208   0.08679
 Alpha virt. eigenvalues --    0.09530   0.09605   0.10905   0.11425   0.11492

 Mulliken charges:
               1
     1  C   -0.310342
     2  C   -0.029467
     3  C   -0.471744
     4  C   -0.107278
     5  C   -0.280770
     6  C   -0.173663
     7  C   -0.043313
     8  C   -0.459703
     9  C   -0.242639
    10  C   -0.340834
    11  H    0.130538
    12  H    0.154274
    13  H    0.153072
    14  H    0.154644
    15  H    0.169383
    16  H    0.173784
    17  H    0.160259
    18  H    0.149116
    19  H    0.138058
    20  H    0.147632
    21  H    0.152571
    22  H    0.151547
    23  H    0.155609
    24  H    0.159414
    25  H    0.156915
    26  H    0.152941
 Sum of Mulliken charges =  -0.00000

 Dipole moment (field-independent basis, Debye):
    X=              0.4970    Y=             -0.2992    Z=             -0.5823  Tot=              0.8219
 Quadrupole moment (field-independent basis, Debye-Ang):
   XX=            -62.7672   YY=            -62.2981   ZZ=            -65.4257
   XY=              2.9241   XZ=              0.1575   YZ=              0.2864

 Normal termination of Gaussian 16 at Mon Feb 22 21:36:43 2021.
