 Gaussian 16, Revision C.01,

 -------------------------------------------------------------
 #P BP86/TZVP EmpiricalDispersion=GD3 SCRF=(Solvent=Water) Opt
 -------------------------------------------------------------

 -------------------------------------
 Particle #XPFVYQJUAUNWIW-UHFFFAOYSA-N
 -------------------------------------
 Symbolic Z-matrix:
 Charge =  0 Multiplicity = 1

 SCF Done:  E(RB-P86) =  -344.672962636     A.U. after   13 cycles
 SCF Done:  E(RB-P86) =  -344.690057636     A.U. after   12 cycles
 SCF Done:  E(RB-P86) =  -344.691582457     A.U. after   10 cycles
 SCF Done:  E(RB-P86) =  -344.691781057     A.U. after   10 cycles
 SCF Done:  E(RB-P86) =  -344.691856004     A.U. after   10 cycles
 SCF Done:  E(RB-P86) =  -344.691895029     A.U. after    9 cycles
 SCF Done:  E(RB-P86) =  -344.691922555     A.U. after    9 cycles
 SCF Done:  E(RB-P86) =  -344.691955861     A.U. after   10 cycles
 SCF Done:  E(RB-P86) =  -344.691969480     A.U. after   10 cycles
 SCF Done:  E(RB-P86) =  -344.691975742     A.U. after    8 cycles
 SCF Done:  E(RB-P86) =  -344.691976943     A.U. after    8 cycles
 SCF Done:  E(RB-P86) =  -344.691977597     A.U. after    7 cycles
 SCF Done:  E(RB-P86) =  -344.691978000     A.U. after    8 cycles
 SCF Done:  E(RB-P86) =  -344.691978240     A.U. after    8 cycles
 Optimization completed.
    -- Stationary point found.
 Normal termination of Gaussian 16 at Mon Feb 22 21:31:00 2021.
 Gaussian 16:  ES64L-G16RevC.01  3-Jul-2019

 ---------------------------------------------------------
 # BP86/TZVP SCRF=COSMORS geom=CHECKPOINT guess=CHECKPOINT
 ---------------------------------------------------------

 -------------------------------------------
 COSMO-file for #XPFVYQJUAUNWIW-UHFFFAOYSA-N
 -------------------------------------------
 Structure from the checkpoint file:  "XPFVYQJUAUNWIW-UHFFFAOYSA-N.chk"
 Charge =  0 Multiplicity = 1

                         Standard orientation:
 ---------------------------------------------------------------------
 Center     Atomic      Atomic             Coordinates (Angstroms)
 Number     Number       Type             X           Y           Z
 ---------------------------------------------------------------------
      1          8           0        2.350928   -0.202111   -0.669438
      2          6           0        1.628678    0.231969    0.513861
      3          6           0        0.171669    0.203283    0.241246
      4          6           0       -0.753697    1.178799   -0.024108
      5          6           0       -2.011390    0.517716   -0.227287
      6          6           0       -1.768529   -0.819786   -0.076375
      7          8           0       -0.442775   -1.037157    0.212142
      8          1           0        3.284244   -0.309002   -0.409224
      9          1           0        1.904821    1.264961    0.789267
     10          1           0        1.861274   -0.428788    1.368540
     11          1           0       -0.555640    2.246294   -0.067674
     12          1           0       -2.969794    0.976142   -0.453990
     13          1           0       -2.390517   -1.707351   -0.132582
 ---------------------------------------------------------------------

 SCF Done:  E(RB-P86) =  -344.689678643     A.U. after   11 cycles

 The electronic state is 1-A.
 Alpha  occ. eigenvalues --  -18.84222 -18.77489  -9.95499  -9.95375  -9.95017
 Alpha  occ. eigenvalues --   -9.90424  -9.90304  -1.02579  -0.93588  -0.73483
 Alpha  occ. eigenvalues --   -0.70777  -0.61733  -0.54966  -0.50266  -0.47521
 Alpha  occ. eigenvalues --   -0.46977  -0.41211  -0.40247  -0.38717  -0.36590
 Alpha  occ. eigenvalues --   -0.35577  -0.33604  -0.31121  -0.25965  -0.24047
 Alpha  occ. eigenvalues --   -0.21215
 Alpha virt. eigenvalues --   -0.04536   0.00979   0.03758   0.05799   0.07092
 Alpha virt. eigenvalues --    0.07947   0.09207   0.09793   0.10861   0.11569
 Alpha virt. eigenvalues --    0.13530   0.14764   0.16004   0.18404   0.19889

 Mulliken charges:
               1
     1  O   -0.436964
     2  C   -0.263621
     3  C    0.096099
     4  C   -0.159461
     5  C   -0.186044
     6  C   -0.073091
     7  O   -0.128303
     8  H    0.316007
     9  H    0.160974
    10  H    0.159208
    11  H    0.171669
    12  H    0.171445
    13  H    0.172081
 Sum of Mulliken charges =  -0.00000

 Dipole moment (field-independent basis, Debye):
    X=              0.4820    Y=              1.1643    Z=              1.8814  Tot=              2.2644
 Quadrupole moment (field-independent basis, Debye-Ang):
   XX=            -28.1263   YY=            -38.5337   ZZ=            -44.8228
   XY=              1.3268   XZ=              5.3537   YZ=             -0.1587

 Normal termination of Gaussian 16 at Mon Feb 22 21:31:07 2021.
