 Gaussian 16, Revision C.01,

 -------------------------------------------------------------
 #P BP86/TZVP EmpiricalDispersion=GD3 SCRF=(Solvent=Water) Opt
 -------------------------------------------------------------

 -------------------------------------
 Particle #XWBDWHCCBGMXKG-UHFFFAOYSA-N
 -------------------------------------
 Symbolic Z-matrix:
 Charge =  0 Multiplicity = 1

 SCF Done:  E(RB-P86) =  -596.135290415     A.U. after   11 cycles
 SCF Done:  E(RB-P86) =  -596.138546345     A.U. after   10 cycles
 SCF Done:  E(RB-P86) =  -596.137589531     A.U. after   11 cycles
 SCF Done:  E(RB-P86) =  -596.139171115     A.U. after    9 cycles
 SCF Done:  E(RB-P86) =  -596.138382537     A.U. after   10 cycles
 SCF Done:  E(RB-P86) =  -596.139327160     A.U. after    9 cycles
 SCF Done:  E(RB-P86) =  -596.139356074     A.U. after    9 cycles
 SCF Done:  E(RB-P86) =  -596.139362848     A.U. after    7 cycles
 SCF Done:  E(RB-P86) =  -596.139364694     A.U. after    7 cycles
 SCF Done:  E(RB-P86) =  -596.139364725     A.U. after    6 cycles
 Optimization completed.
    -- Stationary point found.
 Normal termination of Gaussian 16 at Sat Aug 21 09:34:12 2021.
 Gaussian 16:  ES64L-G16RevC.01  3-Jul-2019

 ---------------------------------------------------------
 # BP86/TZVP SCRF=COSMORS geom=CHECKPOINT guess=CHECKPOINT
 ---------------------------------------------------------

 -------------------------------------------
 COSMO-file for #XWBDWHCCBGMXKG-UHFFFAOYSA-N
 -------------------------------------------
 Structure from the checkpoint file:  "XWBDWHCCBGMXKG-UHFFFAOYSA-N.chk"
 Charge =  0 Multiplicity = 1

                         Standard orientation:
 ---------------------------------------------------------------------
 Center     Atomic      Atomic             Coordinates (Angstroms)
 Number     Number       Type             X           Y           Z
 ---------------------------------------------------------------------
      1          6           0        2.805005   -0.169834    0.000987
      2          6           0        1.313914   -0.473320   -0.001228
      3          7           0        0.480863    0.780479   -0.000429
      4         17           0       -2.378209   -0.143699    0.000292
      5          1           0        3.368624   -1.113052    0.000291
      6          1           0        3.096685    0.399504    0.895978
      7          1           0        3.098886    0.402128   -0.891597
      8          1           0        1.009357   -1.043603    0.886033
      9          1           0        1.011426   -1.041205   -0.890718
     10          1           0       -0.579885    0.518730   -0.000601
     11          1           0        0.672379    1.357315    0.828580
     12          1           0        0.672535    1.358629   -0.828482
 ---------------------------------------------------------------------

 SCF Done:  E(RB-P86) =  -596.143000096     A.U. after    9 cycles

 The electronic state is 1-A.
 Alpha  occ. eigenvalues -- -100.66004 -14.08038  -9.94755  -9.89623  -9.09915
 Alpha  occ. eigenvalues --   -6.91822  -6.91678  -6.91674  -0.88694  -0.69299
 Alpha  occ. eigenvalues --   -0.65412  -0.57897  -0.50555  -0.48290  -0.43479
 Alpha  occ. eigenvalues --   -0.39463  -0.35022  -0.33812  -0.31755  -0.23364
 Alpha  occ. eigenvalues --   -0.22734  -0.22724
 Alpha virt. eigenvalues --    0.01405   0.05149   0.06429   0.07096   0.09022
 Alpha virt. eigenvalues --    0.10413   0.10661   0.12133   0.12836   0.15898
 Alpha virt. eigenvalues --    0.18892   0.21083   0.21192   0.22565   0.25776

 Mulliken charges:
               1
     1  C   -0.406356
     2  C   -0.202121
     3  N   -0.241817
     4  Cl  -0.820864
     5  H    0.164314
     6  H    0.149618
     7  H    0.149591
     8  H    0.178849
     9  H    0.179050
    10  H    0.226312
    11  H    0.311644
    12  H    0.311781
 Sum of Mulliken charges =  -0.00000

 Dipole moment (field-independent basis, Debye):
    X=             12.4463    Y=              3.4134    Z=             -0.0042  Tot=             12.9059
 Quadrupole moment (field-independent basis, Debye-Ang):
   XX=            -53.5551   YY=            -30.2680   ZZ=            -32.7801
   XY=             -0.5337   XZ=              0.0002   YZ=             -0.0010

 Normal termination of Gaussian 16 at Sat Aug 21 09:34:16 2021.
