 Gaussian 16, Revision C.01,

 -------------------------------------------------------------
 #P BP86/TZVP EmpiricalDispersion=GD3 SCRF=(Solvent=Water) Opt
 -------------------------------------------------------------

 -------------------------------------
 Particle #YGSDEFSMJLZEOE-UHFFFAOYSA-N
 -------------------------------------
 Symbolic Z-matrix:
 Charge =  0 Multiplicity = 1

 SCF Done:  E(RB-P86) =  -496.220732536     A.U. after   14 cycles
 SCF Done:  E(RB-P86) =  -496.246892415     A.U. after   13 cycles
 SCF Done:  E(RB-P86) =  -496.257258621     A.U. after   12 cycles
 SCF Done:  E(RB-P86) =  -496.259490452     A.U. after   12 cycles
 SCF Done:  E(RB-P86) =  -496.261006646     A.U. after   11 cycles
 SCF Done:  E(RB-P86) =  -496.261259223     A.U. after   11 cycles
 SCF Done:  E(RB-P86) =  -496.261395544     A.U. after   10 cycles
 SCF Done:  E(RB-P86) =  -496.261447901     A.U. after   10 cycles
 SCF Done:  E(RB-P86) =  -496.261460374     A.U. after    9 cycles
 SCF Done:  E(RB-P86) =  -496.261462302     A.U. after    8 cycles
 Optimization completed.
    -- Stationary point found.
 Normal termination of Gaussian 16 at Mon Feb 22 21:31:56 2021.
 Gaussian 16:  ES64L-G16RevC.01  3-Jul-2019

 ---------------------------------------------------------
 # BP86/TZVP SCRF=COSMORS geom=CHECKPOINT guess=CHECKPOINT
 ---------------------------------------------------------

 -------------------------------------------
 COSMO-file for #YGSDEFSMJLZEOE-UHFFFAOYSA-N
 -------------------------------------------
 Structure from the checkpoint file:  "YGSDEFSMJLZEOE-UHFFFAOYSA-N.chk"
 Charge =  0 Multiplicity = 1

                         Standard orientation:
 ---------------------------------------------------------------------
 Center     Atomic      Atomic             Coordinates (Angstroms)
 Number     Number       Type             X           Y           Z
 ---------------------------------------------------------------------
      1          8           0        2.336689    0.826070    0.000730
      2          6           0        1.667894   -0.223268    0.000096
      3          8           0        2.264789   -1.436594   -0.000999
      4          6           0        0.201760   -0.254709    0.000554
      5          6           0       -0.524709   -1.466430    0.000516
      6          6           0       -1.914044   -1.463853    0.000192
      7          6           0       -2.603466   -0.236247   -0.000349
      8          6           0       -1.913755    0.972393   -0.000233
      9          6           0       -0.507259    0.983023    0.000057
     10          8           0        0.123159    2.180637   -0.000274
     11          1           0        3.234480   -1.288188   -0.001030
     12          1           0        0.025359   -2.407968    0.000959
     13          1           0       -2.465352   -2.404896    0.000763
     14          1           0       -3.695465   -0.227043   -0.000746
     15          1           0       -2.441456    1.927427   -0.000579
     16          1           0        1.106819    1.974306   -0.000018
 ---------------------------------------------------------------------

 SCF Done:  E(RB-P86) =  -496.254959324     A.U. after   11 cycles

 The electronic state is 1-A.
 Alpha  occ. eigenvalues --  -18.82902 -18.80388 -18.78402 -10.04637  -9.98267
 Alpha  occ. eigenvalues --   -9.93017  -9.92044  -9.91889  -9.91022  -9.90760
 Alpha  occ. eigenvalues --   -1.03480  -0.98677  -0.94625  -0.79398  -0.71387
 Alpha  occ. eigenvalues --   -0.68585  -0.61519  -0.57230  -0.55559  -0.49744
 Alpha  occ. eigenvalues --   -0.47722  -0.45985  -0.43563  -0.42486  -0.41741
 Alpha  occ. eigenvalues --   -0.39841  -0.37517  -0.36801  -0.35743  -0.33976
 Alpha  occ. eigenvalues --   -0.31693  -0.31550  -0.30038  -0.26156  -0.25145
 Alpha  occ. eigenvalues --   -0.21767
 Alpha virt. eigenvalues --   -0.09775  -0.04577  -0.00589   0.02801   0.04527
 Alpha virt. eigenvalues --    0.06162   0.07776   0.09865   0.10473   0.10918
 Alpha virt. eigenvalues --    0.11542   0.12877   0.16471   0.16718   0.16783

 Mulliken charges:
               1
     1  O   -0.403683
     2  C    0.249545
     3  O   -0.269060
     4  C   -0.199870
     5  C   -0.059245
     6  C   -0.173853
     7  C   -0.085136
     8  C   -0.233235
     9  C    0.174059
    10  O   -0.277698
    11  H    0.340019
    12  H    0.164933
    13  H    0.155072
    14  H    0.154240
    15  H    0.159078
    16  H    0.304832
 Sum of Mulliken charges =  -0.00000

 Dipole moment (field-independent basis, Debye):
    X=             -0.3110    Y=             -3.1064    Z=             -0.0005  Tot=              3.1219
 Quadrupole moment (field-independent basis, Debye-Ang):
   XX=            -44.6833   YY=            -58.9225   ZZ=            -60.2427
   XY=             -4.2113   XZ=             -0.0034   YZ=             -0.0047

 Normal termination of Gaussian 16 at Mon Feb 22 21:32:10 2021.
