 Gaussian 16, Revision C.01,

 -------------------------------------------------------------
 #P BP86/TZVP EmpiricalDispersion=GD3 SCRF=(Solvent=Water) Opt
 -------------------------------------------------------------

 -------------------------------------
 Particle #YTRIOKYQEVFKGU-UHFFFAOYSA-M
 -------------------------------------
 Symbolic Z-matrix:
 Charge =  0 Multiplicity = 1

 SCF Done:  E(RB-P86) =  -1141.83799526     A.U. after   13 cycles
 SCF Done:  E(RB-P86) =  -1141.84818632     A.U. after   11 cycles
 SCF Done:  E(RB-P86) =  -1141.85032265     A.U. after   11 cycles
 SCF Done:  E(RB-P86) =  -1141.85059432     A.U. after   11 cycles
 SCF Done:  E(RB-P86) =  -1141.85145845     A.U. after   10 cycles
 SCF Done:  E(RB-P86) =  -1141.85189051     A.U. after   10 cycles
 SCF Done:  E(RB-P86) =  -1141.85202917     A.U. after    9 cycles
 SCF Done:  E(RB-P86) =  -1141.85207190     A.U. after    9 cycles
 SCF Done:  E(RB-P86) =  -1141.85213534     A.U. after    9 cycles
 SCF Done:  E(RB-P86) =  -1141.85215621     A.U. after    9 cycles
 SCF Done:  E(RB-P86) =  -1141.85217041     A.U. after    8 cycles
 SCF Done:  E(RB-P86) =  -1141.85217546     A.U. after    8 cycles
 SCF Done:  E(RB-P86) =  -1141.85218194     A.U. after    8 cycles
 SCF Done:  E(RB-P86) =  -1141.85218558     A.U. after    7 cycles
 SCF Done:  E(RB-P86) =  -1141.85218943     A.U. after    8 cycles
 SCF Done:  E(RB-P86) =  -1141.85218921     A.U. after    7 cycles
 SCF Done:  E(RB-P86) =  -1141.85218912     A.U. after    6 cycles
 SCF Done:  E(RB-P86) =  -1141.85218942     A.U. after    7 cycles
 SCF Done:  E(RB-P86) =  -1141.85218947     A.U. after    7 cycles
 Optimization completed.
    -- Stationary point found.
 Normal termination of Gaussian 16 at Sat Aug 21 10:04:07 2021.
 Gaussian 16:  ES64L-G16RevC.01  3-Jul-2019

 ---------------------------------------------------------
 # BP86/TZVP SCRF=COSMORS geom=CHECKPOINT guess=CHECKPOINT
 ---------------------------------------------------------

 -------------------------------------------
 COSMO-file for #YTRIOKYQEVFKGU-UHFFFAOYSA-M
 -------------------------------------------
 Structure from the checkpoint file:  "YTRIOKYQEVFKGU-UHFFFAOYSA-M.chk"
 Charge =  0 Multiplicity = 1

                         Standard orientation:
 ---------------------------------------------------------------------
 Center     Atomic      Atomic             Coordinates (Angstroms)
 Number     Number       Type             X           Y           Z
 ---------------------------------------------------------------------
      1          6           0       -0.703903    3.813765   -0.389363
      2          6           0       -0.858523    2.580164    0.513233
      3          6           0       -0.577034    1.324304   -0.307847
      4          7           0       -0.550350    0.002224    0.459453
      5          6           0       -0.447308   -1.153824   -0.549938
      6          6           0        0.442770   -0.941520   -1.777411
      7          6           0        0.639412   -2.289796   -2.484742
      8          6           0       -1.879402   -0.136735    1.218455
      9          6           0       -2.171904   -1.504591    1.832820
     10          6           0       -3.513241   -1.440019    2.580201
     11          6           0        0.593042   -0.044692    1.491597
     12          6           0        1.982252   -0.045769    0.917693
     13          6           0        2.663440   -1.261024    0.733373
     14          6           0        3.938343   -1.280136    0.160977
     15          6           0        4.550962   -0.080680   -0.223002
     16          6           0        3.893362    1.137854   -0.012788
     17          6           0        2.619108    1.155419    0.562463
     18         17           0       -3.521913    0.052117   -1.996243
     19          1           0       -0.929524    4.732126    0.170494
     20          1           0       -1.389956    3.762503   -1.248689
     21          1           0        0.322342    3.896665   -0.779316
     22          1           0       -0.168543    2.666099    1.367419
     23          1           0       -1.878247    2.555565    0.923390
     24          1           0        0.396797    1.410544   -0.804293
     25          1           0       -1.356155    1.185573   -1.074466
     26          1           0       -1.477866   -1.319540   -0.896199
     27          1           0       -0.113725   -2.026162    0.027081
     28          1           0        1.422260   -0.525759   -1.507611
     29          1           0       -0.042112   -0.233314   -2.465033
     30          1           0        1.216532   -2.157963   -3.410890
     31          1           0       -0.326415   -2.747492   -2.750205
     32          1           0        1.185993   -2.996856   -1.841301
     33          1           0       -1.863723    0.630287    2.003794
     34          1           0       -2.652502    0.116212    0.475344
     35          1           0       -1.379531   -1.808961    2.533596
     36          1           0       -2.231131   -2.276199    1.052104
     37          1           0       -3.482272   -0.701558    3.396015
     38          1           0       -4.331151   -1.160033    1.898630
     39          1           0       -3.756859   -2.418438    3.017580
     40          1           0        0.423500   -0.957457    2.073428
     41          1           0        0.432025    0.813839    2.154497
     42          1           0        2.185482   -2.198629    1.026805
     43          1           0        4.453864   -2.231130    0.014597
     44          1           0        5.545137   -0.094252   -0.674051
     45          1           0        4.375403    2.076545   -0.292362
     46          1           0        2.117085    2.109904    0.735273
 ---------------------------------------------------------------------

 SCF Done:  E(RB-P86) =  -1141.79915210     A.U. after   11 cycles

 The electronic state is 1-A.
 Alpha  occ. eigenvalues -- -100.64629 -14.12206  -9.95262  -9.94198  -9.94184
 Alpha  occ. eigenvalues --   -9.94028  -9.92390  -9.91173  -9.91096  -9.91038
 Alpha  occ. eigenvalues --   -9.90975  -9.90934  -9.90466  -9.90449  -9.90162
 Alpha  occ. eigenvalues --   -9.88955  -9.88947  -9.88862  -9.08495  -6.90312
 Alpha  occ. eigenvalues --   -6.90310  -6.90304  -0.92088  -0.79431  -0.73173
 Alpha  occ. eigenvalues --   -0.73027  -0.72443  -0.70356  -0.68685  -0.64904
 Alpha  occ. eigenvalues --   -0.63870  -0.63694  -0.63452  -0.58293  -0.55796
 Alpha  occ. eigenvalues --   -0.55102  -0.54780  -0.54459  -0.51517  -0.47609
 Alpha  occ. eigenvalues --   -0.47090  -0.46454  -0.44986  -0.43234  -0.42453
 Alpha  occ. eigenvalues --   -0.41763  -0.41070  -0.40681  -0.38237  -0.37980
 Alpha  occ. eigenvalues --   -0.37329  -0.37170  -0.36614  -0.36052  -0.35204
 Alpha  occ. eigenvalues --   -0.34783  -0.34661  -0.34017  -0.33076  -0.32518
 Alpha  occ. eigenvalues --   -0.32242  -0.31551  -0.31203  -0.30938  -0.30322
 Alpha  occ. eigenvalues --   -0.30245  -0.30008  -0.29674  -0.29351  -0.24240
 Alpha  occ. eigenvalues --   -0.23987  -0.21532  -0.21524  -0.21158
 Alpha virt. eigenvalues --   -0.06405  -0.05470   0.01501   0.02796   0.02984
 Alpha virt. eigenvalues --    0.03247   0.04152   0.04657   0.05126   0.05648
 Alpha virt. eigenvalues --    0.05905   0.06317   0.06572   0.07727   0.07774

 Mulliken charges:
               1
     1  C   -0.450077
     2  C   -0.227627
     3  C   -0.309412
     4  N   -0.099318
     5  C   -0.288547
     6  C   -0.198488
     7  C   -0.464019
     8  C   -0.239168
     9  C   -0.224457
    10  C   -0.438160
    11  C   -0.376263
    12  C   -0.038089
    13  C   -0.103175
    14  C   -0.137517
    15  C   -0.128586
    16  C   -0.139899
    17  C   -0.102170
    18  Cl  -0.878960
    19  H    0.158755
    20  H    0.144098
    21  H    0.146577
    22  H    0.167653
    23  H    0.180063
    24  H    0.240590
    25  H    0.177261
    26  H    0.177512
    27  H    0.228192
    28  H    0.166232
    29  H    0.165696
    30  H    0.158352
    31  H    0.143531
    32  H    0.150344
    33  H    0.213404
    34  H    0.174900
    35  H    0.157194
    36  H    0.170586
    37  H    0.144688
    38  H    0.141058
    39  H    0.158643
    40  H    0.250520
    41  H    0.246171
    42  H    0.158029
    43  H    0.150821
    44  H    0.151397
    45  H    0.150526
    46  H    0.171142
 Sum of Mulliken charges =  -0.00000

 Dipole moment (field-independent basis, Debye):
    X=             13.7533    Y=             -0.2212    Z=             10.7140  Tot=             17.4354
 Quadrupole moment (field-independent basis, Debye-Ang):
   XX=           -161.2945   YY=           -108.0131   ZZ=           -133.9472
   XY=              0.6807   XZ=            -37.1420   YZ=             -0.1014

 Normal termination of Gaussian 16 at Sat Aug 21 10:05:29 2021.
