 Gaussian 16, Revision C.01,

 -------------------------------------------------------------
 #P BP86/TZVP EmpiricalDispersion=GD3 SCRF=(Solvent=Water) Opt
 -------------------------------------------------------------

 -------------------------------------
 Particle #ZIBGPFATKBEMQZ-UHFFFAOYSA-N
 -------------------------------------
 Symbolic Z-matrix:
 Charge =  0 Multiplicity = 1

 SCF Done:  E(RB-P86) =  -538.132229442     A.U. after   12 cycles
 SCF Done:  E(RB-P86) =  -538.138248243     A.U. after   10 cycles
 SCF Done:  E(RB-P86) =  -538.138811086     A.U. after   10 cycles
 SCF Done:  E(RB-P86) =  -538.138871499     A.U. after    8 cycles
 SCF Done:  E(RB-P86) =  -538.138877437     A.U. after    8 cycles
 SCF Done:  E(RB-P86) =  -538.138879899     A.U. after    8 cycles
 SCF Done:  E(RB-P86) =  -538.138881893     A.U. after    8 cycles
 SCF Done:  E(RB-P86) =  -538.138883526     A.U. after    7 cycles
 SCF Done:  E(RB-P86) =  -538.138884492     A.U. after    7 cycles
 SCF Done:  E(RB-P86) =  -538.138884606     A.U. after    7 cycles
 SCF Done:  E(RB-P86) =  -538.138884612     A.U. after    6 cycles
 Optimization completed.
    -- Stationary point found.
 Normal termination of Gaussian 16 at Mon Feb 22 21:32:46 2021.
 Gaussian 16:  ES64L-G16RevC.01  3-Jul-2019

 ---------------------------------------------------------
 # BP86/TZVP SCRF=COSMORS geom=CHECKPOINT guess=CHECKPOINT
 ---------------------------------------------------------

 -------------------------------------------
 COSMO-file for #ZIBGPFATKBEMQZ-UHFFFAOYSA-N
 -------------------------------------------
 Structure from the checkpoint file:  "ZIBGPFATKBEMQZ-UHFFFAOYSA-N.chk"
 Charge =  0 Multiplicity = 1

                         Standard orientation:
 ---------------------------------------------------------------------
 Center     Atomic      Atomic             Coordinates (Angstroms)
 Number     Number       Type             X           Y           Z
 ---------------------------------------------------------------------
      1          8           0        5.223970    0.472706    0.066219
      2          6           0        4.079813   -0.335772   -0.266028
      3          6           0        2.848967    0.434090    0.191168
      4          8           0        1.701419   -0.355703   -0.133888
      5          6           0        0.480851    0.275904    0.261324
      6          6           0       -0.660710   -0.647086   -0.141323
      7          8           0       -1.879024   -0.015701    0.256685
      8          6           0       -3.028743   -0.807861   -0.067819
      9          6           0       -4.283200   -0.074096    0.351689
     10          8           0       -4.482057    1.057994   -0.518043
     11          1           0        6.017944   -0.007181   -0.226994
     12          1           0        4.112323   -1.313961    0.248054
     13          1           0        4.014815   -0.517469   -1.354541
     14          1           0        2.806722    1.416005   -0.320166
     15          1           0        2.902442    0.617424    1.282438
     16          1           0        0.461629    0.444240    1.355911
     17          1           0        0.365773    1.257402   -0.238883
     18          1           0       -0.641054   -0.814398   -1.236329
     19          1           0       -0.543400   -1.630141    0.356596
     20          1           0       -2.987067   -1.780536    0.462297
     21          1           0       -3.060849   -1.013320   -1.156549
     22          1           0       -5.132101   -0.780707    0.286313
     23          1           0       -4.180663    0.245430    1.405575
     24          1           0       -5.272850    1.531766   -0.205569
 ---------------------------------------------------------------------

 SCF Done:  E(RB-P86) =  -538.129895805     A.U. after   10 cycles

 The electronic state is 1-A.
 Alpha  occ. eigenvalues --  -18.78511 -18.78264 -18.77506 -18.77204  -9.94463
 Alpha  occ. eigenvalues --   -9.94405  -9.94398  -9.94389  -9.94354  -9.94340
 Alpha  occ. eigenvalues --   -0.96135  -0.95379  -0.93728  -0.93300  -0.71520
 Alpha  occ. eigenvalues --   -0.68283  -0.63931  -0.55940  -0.54921  -0.54301
 Alpha  occ. eigenvalues --   -0.48052  -0.47533  -0.45453  -0.44996  -0.42605
 Alpha  occ. eigenvalues --   -0.42140  -0.41050  -0.38895  -0.37899  -0.37260
 Alpha  occ. eigenvalues --   -0.34876  -0.34103  -0.31738  -0.31327  -0.29596
 Alpha  occ. eigenvalues --   -0.28998  -0.28882  -0.23863  -0.23789  -0.22746
 Alpha  occ. eigenvalues --   -0.22073
 Alpha virt. eigenvalues --    0.00800   0.02162   0.02841   0.03849   0.05481
 Alpha virt. eigenvalues --    0.06428   0.06928   0.07524   0.08487   0.09317
 Alpha virt. eigenvalues --    0.10078   0.10925   0.11227   0.11709   0.12197

 Mulliken charges:
               1
     1  O   -0.442623
     2  C   -0.143937
     3  C   -0.108890
     4  O   -0.284566
     5  C   -0.122207
     6  C   -0.122227
     7  O   -0.277650
     8  C   -0.125108
     9  C   -0.149429
    10  O   -0.441406
    11  H    0.318232
    12  H    0.133010
    13  H    0.133048
    14  H    0.128487
    15  H    0.128209
    16  H    0.130053
    17  H    0.129693
    18  H    0.129033
    19  H    0.127388
    20  H    0.138990
    21  H    0.131595
    22  H    0.138903
    23  H    0.135883
    24  H    0.315519
 Sum of Mulliken charges =  -0.00000

 Dipole moment (field-independent basis, Debye):
    X=             -1.2429    Y=             -2.5014    Z=              0.7302  Tot=              2.8871
 Quadrupole moment (field-independent basis, Debye-Ang):
   XX=            -36.5688   YY=            -61.9102   ZZ=            -63.2225
   XY=             -4.3223   XZ=            -10.1659   YZ=              0.9644

 Normal termination of Gaussian 16 at Mon Feb 22 21:32:58 2021.
