 Gaussian 16, Revision C.01,

 -------------------------------------------------------------
 #P BP86/TZVP EmpiricalDispersion=GD3 SCRF=(Solvent=Water) Opt
 -------------------------------------------------------------

 -------------------------------------
 Particle #ZQPPMHVWECSIRJ-KTKRTIGZSA-N
 -------------------------------------
 Symbolic Z-matrix:
 Charge =  0 Multiplicity = 1

 SCF Done:  E(RB-P86) =  -857.156328658     A.U. after   13 cycles
 SCF Done:  E(RB-P86) =  -857.183864695     A.U. after   11 cycles
 SCF Done:  E(RB-P86) =  -857.188722447     A.U. after   12 cycles
 SCF Done:  E(RB-P86) =  -857.189081178     A.U. after   10 cycles
 SCF Done:  E(RB-P86) =  -857.189109900     A.U. after   10 cycles
 SCF Done:  E(RB-P86) =  -857.189273256     A.U. after    9 cycles
 SCF Done:  E(RB-P86) =  -857.189391618     A.U. after   10 cycles
 SCF Done:  E(RB-P86) =  -857.189520668     A.U. after   10 cycles
 SCF Done:  E(RB-P86) =  -857.189560213     A.U. after   10 cycles
 SCF Done:  E(RB-P86) =  -857.189587207     A.U. after    8 cycles
 SCF Done:  E(RB-P86) =  -857.192318691     A.U. after   10 cycles
 SCF Done:  E(RB-P86) =  -857.192319365     A.U. after    9 cycles
 SCF Done:  E(RB-P86) =  -857.192316289     A.U. after   10 cycles
 SCF Done:  E(RB-P86) =  -857.192317699     A.U. after    9 cycles
 SCF Done:  E(RB-P86) =  -857.192319528     A.U. after   10 cycles
 SCF Done:  E(RB-P86) =  -857.192318376     A.U. after   10 cycles
 SCF Done:  E(RB-P86) =  -857.192318715     A.U. after    7 cycles
 SCF Done:  E(RB-P86) =  -857.192319780     A.U. after    9 cycles
 SCF Done:  E(RB-P86) =  -857.192318471     A.U. after   10 cycles
 Optimization completed on the basis of negligible forces.
    -- Stationary point found.
 Normal termination of Gaussian 16 at Tue Feb 23 01:32:50 2021.
 Gaussian 16:  ES64L-G16RevC.01  3-Jul-2019

 ---------------------------------------------------------
 # BP86/TZVP SCRF=COSMORS geom=CHECKPOINT guess=CHECKPOINT
 ---------------------------------------------------------

 -------------------------------------------
 COSMO-file for #ZQPPMHVWECSIRJ-KTKRTIGZSA-N
 -------------------------------------------
 Structure from the checkpoint file:  "ZQPPMHVWECSIRJ-KTKRTIGZSA-N.chk"
 Charge =  0 Multiplicity = 1

                         Standard orientation:
 ---------------------------------------------------------------------
 Center     Atomic      Atomic             Coordinates (Angstroms)
 Number     Number       Type             X           Y           Z
 ---------------------------------------------------------------------
      1          6           0        6.367810   -5.088857   -0.285523
      2          6           0        6.068398   -3.810934    0.507993
      3          6           0        5.325758   -2.751221   -0.317373
      4          6           0        5.019034   -1.467994    0.465439
      5          6           0        4.275771   -0.409693   -0.360364
      6          6           0        3.966667    0.871306    0.425237
      7          6           0        3.218949    1.925468   -0.400389
      8          6           0        2.892706    3.203568    0.402607
      9          6           0        2.191645    4.239060   -0.435361
     10          6           0        0.876819    4.523296   -0.429416
     11          6           0       -0.181788    3.866485    0.416383
     12          6           0       -0.978173    2.802615   -0.370017
     13          6           0       -2.089545    2.147340    0.459128
     14          6           0       -2.867695    1.073995   -0.312571
     15          6           0       -3.975262    0.411714    0.517141
     16          6           0       -4.745977   -0.663142   -0.259538
     17          6           0       -5.842651   -1.314759    0.584375
     18          6           0       -6.621613   -2.384221   -0.146164
     19          8           0       -6.452121   -2.735800   -1.303475
     20          8           0       -7.576050   -2.940505    0.656609
     21          1           0        6.900170   -5.832855    0.327028
     22          1           0        5.437429   -5.555751   -0.647670
     23          1           0        6.993167   -4.869411   -1.166158
     24          1           0        7.012080   -3.378693    0.885798
     25          1           0        5.467205   -4.060342    1.400452
     26          1           0        4.380782   -3.182320   -0.696521
     27          1           0        5.926572   -2.499384   -1.210772
     28          1           0        5.964051   -1.037081    0.844192
     29          1           0        4.418469   -1.720661    1.358597
     30          1           0        3.331384   -0.840928   -0.740128
     31          1           0        4.876578   -0.154832   -1.252601
     32          1           0        3.366773    0.616043    1.318003
     33          1           0        4.910114    1.305647    0.803580
     34          1           0        3.818669    2.192969   -1.288782
     35          1           0        2.275223    1.497186   -0.781832
     36          1           0        3.836317    3.623345    0.794966
     37          1           0        2.283944    2.925225    1.278267
     38          1           0        2.828742    4.773758   -1.150844
     39          1           0        0.511228    5.273804   -1.141169
     40          1           0       -0.886077    4.632347    0.787160
     41          1           0        0.261631    3.389937    1.305894
     42          1           0       -1.414415    3.264367   -1.273819
     43          1           0       -0.275756    2.028626   -0.726403
     44          1           0       -2.790388    2.925977    0.811574
     45          1           0       -1.648674    1.696842    1.367176
     46          1           0       -3.310668    1.524600   -1.219350
     47          1           0       -2.164652    0.298342   -0.667087
     48          1           0       -3.532173   -0.037572    1.424466
     49          1           0       -4.679999    1.186227    0.870434
     50          1           0       -4.047141   -1.439800   -0.612185
     51          1           0       -5.195443   -0.219084   -1.163234
     52          1           0       -5.422708   -1.774253    1.495539
     53          1           0       -6.567733   -0.563724    0.942474
     54          1           0       -8.044444   -3.622260    0.128359
 ---------------------------------------------------------------------

 SCF Done:  E(RB-P86) =  -857.146070448     A.U. after   11 cycles

 The electronic state is 1-A.
 Alpha  occ. eigenvalues --  -18.81847 -18.76990 -10.03213  -9.91017  -9.89460
 Alpha  occ. eigenvalues --   -9.89133  -9.89123  -9.89116  -9.89070  -9.88915
 Alpha  occ. eigenvalues --   -9.88912  -9.88894  -9.88715  -9.88676  -9.88644
 Alpha  occ. eigenvalues --   -9.88587  -9.88530  -9.88491  -9.88468  -9.88055
 Alpha  occ. eigenvalues --   -1.02056  -0.93887  -0.74378  -0.73765  -0.72962
 Alpha  occ. eigenvalues --   -0.71664  -0.70178  -0.68232  -0.66228  -0.63733
 Alpha  occ. eigenvalues --   -0.61587  -0.58632  -0.56924  -0.53914  -0.53050
 Alpha  occ. eigenvalues --   -0.51639  -0.51450  -0.51321  -0.51046  -0.46710
 Alpha  occ. eigenvalues --   -0.44972  -0.44294  -0.43911  -0.43390  -0.42739
 Alpha  occ. eigenvalues --   -0.41751  -0.40493  -0.39340  -0.38860  -0.37956
 Alpha  occ. eigenvalues --   -0.37703  -0.37266  -0.37068  -0.36435  -0.35825
 Alpha  occ. eigenvalues --   -0.34959  -0.34297  -0.34060  -0.33553  -0.32632
 Alpha  occ. eigenvalues --   -0.32343  -0.31253  -0.30709  -0.30551  -0.30047
 Alpha  occ. eigenvalues --   -0.29572  -0.29216  -0.28865  -0.28688  -0.28541
 Alpha  occ. eigenvalues --   -0.28185  -0.28068  -0.27773  -0.27558  -0.27447
 Alpha  occ. eigenvalues --   -0.27338  -0.26291  -0.24806  -0.21486
 Alpha virt. eigenvalues --   -0.04545  -0.02116   0.01661   0.02391   0.02838
 Alpha virt. eigenvalues --    0.03532   0.04093   0.04257   0.04672   0.05074
 Alpha virt. eigenvalues --    0.05633   0.05763   0.06231   0.06574   0.06955

 Mulliken charges:
               1
     1  C   -0.418746
     2  C   -0.228156
     3  C   -0.260343
     4  C   -0.244774
     5  C   -0.251378
     6  C   -0.250581
     7  C   -0.306416
     8  C   -0.237504
     9  C   -0.180981
    10  C   -0.181918
    11  C   -0.240729
    12  C   -0.307734
    13  C   -0.253960
    14  C   -0.245417
    15  C   -0.267986
    16  C   -0.262111
    17  C   -0.265734
    18  C    0.203106
    19  O   -0.364146
    20  O   -0.286773
    21  H    0.144524
    22  H    0.131785
    23  H    0.131722
    24  H    0.126725
    25  H    0.126737
    26  H    0.123124
    27  H    0.122945
    28  H    0.124439
    29  H    0.124151
    30  H    0.126622
    31  H    0.126715
    32  H    0.127963
    33  H    0.128556
    34  H    0.138137
    35  H    0.139937
    36  H    0.146145
    37  H    0.146428
    38  H    0.143468
    39  H    0.143233
    40  H    0.146538
    41  H    0.148827
    42  H    0.137378
    43  H    0.142123
    44  H    0.129798
    45  H    0.129220
    46  H    0.129260
    47  H    0.129483
    48  H    0.131908
    49  H    0.132171
    50  H    0.138935
    51  H    0.138504
    52  H    0.182106
    53  H    0.182824
    54  H    0.329850
 Sum of Mulliken charges =  -0.00000

 Dipole moment (field-independent basis, Debye):
    X=             -0.4240    Y=              0.1110    Z=              2.3654  Tot=              2.4056
 Quadrupole moment (field-independent basis, Debye-Ang):
   XX=           -119.7968   YY=           -134.5789   ZZ=           -136.9275
   XY=             -1.7375   XZ=            -11.5873   YZ=             -6.8620

 Normal termination of Gaussian 16 at Tue Feb 23 01:33:49 2021.
