 Gaussian 16, Revision C.01,

 -------------------------------------------------------------
 #P BP86/TZVP EmpiricalDispersion=GD3 SCRF=(Solvent=Water) Opt
 -------------------------------------------------------------

 -------------------------------------
 Particle #AEMRFAOFKBGASW-UHFFFAOYSA-N
 -------------------------------------
 Symbolic Z-matrix:
 Charge =  0 Multiplicity = 1

 SCF Done:  E(RB-P86) =  -304.419485323     A.U. after   13 cycles
 SCF Done:  E(RB-P86) =  -304.430266540     A.U. after   11 cycles
 SCF Done:  E(RB-P86) =  -304.431231733     A.U. after   10 cycles
 SCF Done:  E(RB-P86) =  -304.431527841     A.U. after   10 cycles
 SCF Done:  E(RB-P86) =  -304.431981367     A.U. after   10 cycles
 SCF Done:  E(RB-P86) =  -304.432664539     A.U. after   11 cycles
 SCF Done:  E(RB-P86) =  -304.433780290     A.U. after   11 cycles
 SCF Done:  E(RB-P86) =  -304.434286552     A.U. after   10 cycles
 SCF Done:  E(RB-P86) =  -304.434486681     A.U. after   11 cycles
 SCF Done:  E(RB-P86) =  -304.434558058     A.U. after   10 cycles
 SCF Done:  E(RB-P86) =  -304.434593339     A.U. after   10 cycles
 SCF Done:  E(RB-P86) =  -304.434623855     A.U. after   10 cycles
 SCF Done:  E(RB-P86) =  -304.434655883     A.U. after    9 cycles
 SCF Done:  E(RB-P86) =  -304.434687338     A.U. after   10 cycles
 SCF Done:  E(RB-P86) =  -304.434692738     A.U. after    9 cycles
 SCF Done:  E(RB-P86) =  -304.434692953     A.U. after    8 cycles
 SCF Done:  E(RB-P86) =  -304.434693074     A.U. after    8 cycles
 Optimization completed.
    -- Stationary point found.
 Normal termination of Gaussian 16 at Mon Feb 22 20:58:34 2021.
 Gaussian 16:  ES64L-G16RevC.01  3-Jul-2019

 ---------------------------------------------------------
 # BP86/TZVP SCRF=COSMORS geom=CHECKPOINT guess=CHECKPOINT
 ---------------------------------------------------------

 -------------------------------------------
 COSMO-file for #AEMRFAOFKBGASW-UHFFFAOYSA-N
 -------------------------------------------
 Structure from the checkpoint file:  "AEMRFAOFKBGASW-UHFFFAOYSA-N.chk"
 Charge =  0 Multiplicity = 1

                         Standard orientation:
 ---------------------------------------------------------------------
 Center     Atomic      Atomic             Coordinates (Angstroms)
 Number     Number       Type             X           Y           Z
 ---------------------------------------------------------------------
      1          8           0        0.634971    1.330018    0.000019
      2          6           0        0.537002    0.117395    0.000027
      3          8           0        1.602365   -0.729443   -0.000015
      4          6           0       -0.754850   -0.680277    0.000039
      5          8           0       -1.858060    0.218993   -0.000044
      6          1           0        2.417918   -0.183781   -0.000161
      7          1           0       -0.738828   -1.336621   -0.890668
      8          1           0       -0.738926   -1.336564    0.890787
      9          1           0       -2.667284   -0.322287   -0.000034
 ---------------------------------------------------------------------

 SCF Done:  E(RB-P86) =  -304.438229153     A.U. after   11 cycles

 The electronic state is 1-A.
 Alpha  occ. eigenvalues --  -18.82428 -18.78353 -18.77612 -10.03776  -9.96402
 Alpha  occ. eigenvalues --   -1.02800  -0.95499  -0.94237  -0.68229  -0.55730
 Alpha  occ. eigenvalues --   -0.48362  -0.44330  -0.44234  -0.43703  -0.37500
 Alpha  occ. eigenvalues --   -0.36731  -0.32335  -0.29808  -0.25520  -0.24686
 Alpha virt. eigenvalues --   -0.04936   0.01858   0.02841   0.07458   0.10273
 Alpha virt. eigenvalues --    0.10878   0.15249   0.15456   0.18275   0.21675
 Alpha virt. eigenvalues --    0.25193   0.27642   0.27656   0.30115   0.32376

 Mulliken charges:
               1
     1  O   -0.362243
     2  C    0.244120
     3  O   -0.289652
     4  C   -0.181980
     5  O   -0.424166
     6  H    0.337800
     7  H    0.175723
     8  H    0.175751
     9  H    0.324647
 Sum of Mulliken charges =  -0.00000

 Dipole moment (field-independent basis, Debye):
    X=             -0.0241    Y=             -4.3801    Z=             -0.0002  Tot=              4.3802
 Quadrupole moment (field-independent basis, Debye-Ang):
   XX=            -18.5321   YY=            -34.4233   ZZ=            -28.6741
   XY=              4.8375   XZ=             -0.0013   YZ=             -0.0003

 Normal termination of Gaussian 16 at Mon Feb 22 20:58:38 2021.
