 Gaussian 16, Revision C.01,

 -------------------------------------------------------------
 #P BP86/TZVP EmpiricalDispersion=GD3 SCRF=(Solvent=Water) Opt
 -------------------------------------------------------------

 -------------------------------------
 Particle #AOCYKHQUTWXPMC-UHFFFAOYSA-M
 -------------------------------------
 Symbolic Z-matrix:
 Charge =  0 Multiplicity = 1

 SCF Done:  E(RB-P86) =  -813.350562020     A.U. after   12 cycles
 SCF Done:  E(RB-P86) =  -813.357646791     A.U. after   10 cycles
 SCF Done:  E(RB-P86) =  -813.358913522     A.U. after   10 cycles
 SCF Done:  E(RB-P86) =  -813.359027377     A.U. after   10 cycles
 SCF Done:  E(RB-P86) =  -813.359498209     A.U. after    9 cycles
 SCF Done:  E(RB-P86) =  -813.359838177     A.U. after    9 cycles
 SCF Done:  E(RB-P86) =  -813.360054429     A.U. after    9 cycles
 SCF Done:  E(RB-P86) =  -813.360096107     A.U. after    8 cycles
 SCF Done:  E(RB-P86) =  -813.360136793     A.U. after    9 cycles
 SCF Done:  E(RB-P86) =  -813.360147195     A.U. after    8 cycles
 SCF Done:  E(RB-P86) =  -813.360160864     A.U. after    8 cycles
 SCF Done:  E(RB-P86) =  -813.360164097     A.U. after    7 cycles
 SCF Done:  E(RB-P86) =  -813.360164629     A.U. after    7 cycles
 SCF Done:  E(RB-P86) =  -813.360164842     A.U. after    7 cycles
 SCF Done:  E(RB-P86) =  -813.360164086     A.U. after    7 cycles
 SCF Done:  E(RB-P86) =  -813.360163022     A.U. after    8 cycles
 SCF Done:  E(RB-P86) =  -813.360164942     A.U. after    8 cycles
 SCF Done:  E(RB-P86) =  -813.360161849     A.U. after    8 cycles
 SCF Done:  E(RB-P86) =  -813.360161017     A.U. after    6 cycles
 Optimization completed.
    -- Stationary point found.

  BP86/TZVP EmpiricalDispersion=GD3 SCRF=(Solvent=Water) Opt\\Particle
 #AOCYKHQUTWXPMC-UHFFFAOYSA-M\\0,1\C,-0.5162384624,-0.5438487496,-2.261
 6599519\N,-1.0927053236,-0.4640384675,-0.8648898819\C,-2.3520620927,-1
 .3039072339,-0.8165167357\C,-1.4647154497,0.9703181514,-0.5672066658\C
 ,-0.1235132675,-1.0170026777,0.1747170914\C,1.2231786764,-0.3330699284
 ,0.2844630231\F,2.065526506,-0.6845919722,-0.7974994211\Cl,-3.68968406
 73,0.8355045696,-3.4371096525\H,0.3672080485,0.0986513956,-2.318963537
 \H,-0.2367631416,-1.5836703905,-2.4637877523\H,-1.2981567036,-0.200410

 Normal termination of Gaussian 16 at Sat Aug 21 09:36:03 2021.
 Gaussian 16:  ES64L-G16RevC.01  3-Jul-2019

 ---------------------------------------------------------
 # BP86/TZVP SCRF=COSMORS geom=CHECKPOINT guess=CHECKPOINT
 ---------------------------------------------------------

 -------------------------------------------
 COSMO-file for #AOCYKHQUTWXPMC-UHFFFAOYSA-M
 -------------------------------------------
 Structure from the checkpoint file:  "AOCYKHQUTWXPMC-UHFFFAOYSA-M.chk"
 Charge =  0 Multiplicity = 1

                         Standard orientation:
 ---------------------------------------------------------------------
 Center     Atomic      Atomic             Coordinates (Angstroms)
 Number     Number       Type             X           Y           Z
 ---------------------------------------------------------------------
      1          6           0       -0.059451   -0.915612   -0.717478
      2          7           0       -0.294083    0.434885   -0.076576
      3          6           0        0.526102    1.468279   -0.820278
      4          6           0        0.183292    0.389062    1.356741
      5          6           0       -1.758669    0.850993   -0.164484
      6          6           0       -2.768510   -0.060900    0.500391
      7          9           0       -2.978371   -1.234755   -0.262357
      8         17           0        3.477774   -0.458611    0.078915
      9          1           0       -0.610521   -1.675986   -0.156479
     10          1           0       -0.420695   -0.877677   -1.751042
     11          1           0        1.022366   -1.106573   -0.680967
     12          1           0        0.193310    1.492591   -1.864199
     13          1           0        1.580061    1.163739   -0.751265
     14          1           0        0.369030    2.445496   -0.349599
     15          1           0        1.261250    0.174063    1.331772
     16          1           0       -0.015453    1.359370    1.825686
     17          1           0       -0.344461   -0.407872    1.889842
     18          1           0       -1.995763    0.948781   -1.232422
     19          1           0       -1.825994    1.845093    0.299006
     20          1           0       -2.482661   -0.367060    1.516585
     21          1           0       -3.725285    0.480081    0.549407
 ---------------------------------------------------------------------

 SCF Done:  E(RB-P86) =  -813.348052676     A.U. after   10 cycles

 The electronic state is 1-A.
 Alpha  occ. eigenvalues -- -100.64590 -24.27555 -14.13472  -9.98511  -9.96039
 Alpha  occ. eigenvalues --   -9.93975  -9.93953  -9.93828  -9.08465  -6.90283
 Alpha  occ. eigenvalues --   -6.90277  -6.90276  -1.10183  -0.93542  -0.72301
 Alpha  occ. eigenvalues --   -0.67769  -0.67637  -0.63631  -0.61792  -0.55678
 Alpha  occ. eigenvalues --   -0.49023  -0.47921  -0.46783  -0.45322  -0.42767
 Alpha  occ. eigenvalues --   -0.41344  -0.39054  -0.37720  -0.36191  -0.35912
 Alpha  occ. eigenvalues --   -0.35575  -0.35475  -0.35381  -0.31089  -0.30572
 Alpha  occ. eigenvalues --   -0.21530  -0.21526  -0.21309
 Alpha virt. eigenvalues --    0.00603   0.02810   0.03371   0.05274   0.05389
 Alpha virt. eigenvalues --    0.05750   0.06766   0.07247   0.07477   0.09990
 Alpha virt. eigenvalues --    0.10442   0.11035   0.11805   0.12112   0.12905

 Mulliken charges:
               1
     1  C   -0.261365
     2  N   -0.204068
     3  C   -0.256977
     4  C   -0.278722
     5  C   -0.190929
     6  C   -0.058705
     7  F   -0.248150
     8  Cl  -0.878384
     9  H    0.195357
    10  H    0.189814
    11  H    0.144439
    12  H    0.192702
    13  H    0.148381
    14  H    0.189829
    15  H    0.147900
    16  H    0.194458
    17  H    0.196933
    18  H    0.214762
    19  H    0.210368
    20  H    0.173447
    21  H    0.178910
 Sum of Mulliken charges =  -0.00000

 Dipole moment (field-independent basis, Debye):
    X=            -16.7246    Y=              6.0991    Z=              0.5161  Tot=             17.8095
 Quadrupole moment (field-independent basis, Debye-Ang):
   XX=           -107.0643   YY=            -55.3676   ZZ=            -52.5886
   XY=              0.3611   XZ=             -4.6974   YZ=             -0.7918

 86/TZVP SCRF=COSMORS geom=CHECKPOINT guess=CHECKPOINT\\COSMO-file for
 #AOCYKHQUTWXPMC-UHFFFAOYSA-M\\0,1\C,0,-0.5162384624,-0.5438487496,-2.2
 616599519\N,0,-1.0927053236,-0.4640384675,-0.8648898819\C,0,-2.3520620
 927,-1.3039072339,-0.8165167357\C,0,-1.4647154497,0.9703181514,-0.5672
 066658\C,0,-0.1235132675,-1.0170026777,0.1747170914\C,0,1.2231786764,-
 0.3330699284,0.2844630231\F,0,2.065526506,-0.6845919722,-0.7974994211\
 Cl,0,-3.6896840673,0.8355045696,-3.4371096525\H,0,0.3672080485,0.09865
 13956,-2.318963537\H,0,-0.2367631416,-1.5836703905,-2.4637877523\H,0,-

 Normal termination of Gaussian 16 at Sat Aug 21 09:36:16 2021.
