 Gaussian 16, Revision C.01,

 -------------------------------------------------------------
 #P BP86/TZVP EmpiricalDispersion=GD3 SCRF=(Solvent=Water) Opt
 -------------------------------------------------------------

 -------------------------------------
 Particle #AYFVYJQAPQTCCC-STHAYSLISA-N
 -------------------------------------
 Symbolic Z-matrix:
 Charge =  0 Multiplicity = 1

 SCF Done:  E(RB-P86) =  -438.456851980     A.U. after   14 cycles
 SCF Done:  E(RB-P86) =  -438.474740325     A.U. after   12 cycles
 SCF Done:  E(RB-P86) =  -438.477797749     A.U. after   12 cycles
 SCF Done:  E(RB-P86) =  -438.476708414     A.U. after   13 cycles
 SCF Done:  E(RB-P86) =  -438.480953678     A.U. after   10 cycles
 SCF Done:  E(RB-P86) =  -438.482683692     A.U. after   11 cycles
 SCF Done:  E(RB-P86) =  -438.483914607     A.U. after   13 cycles
 SCF Done:  E(RB-P86) =  -438.484124371     A.U. after   11 cycles
 SCF Done:  E(RB-P86) =  -438.484171678     A.U. after   10 cycles
 SCF Done:  E(RB-P86) =  -438.484231446     A.U. after   10 cycles
 SCF Done:  E(RB-P86) =  -438.484241487     A.U. after    9 cycles
 SCF Done:  E(RB-P86) =  -438.484244512     A.U. after    9 cycles
 SCF Done:  E(RB-P86) =  -438.484245444     A.U. after    8 cycles
 SCF Done:  E(RB-P86) =  -438.484245551     A.U. after    8 cycles
 Optimization completed.
    -- Stationary point found.
 Normal termination of Gaussian 16 at Mon Feb 22 20:59:59 2021.
 Gaussian 16:  ES64L-G16RevC.01  3-Jul-2019

 ---------------------------------------------------------
 # BP86/TZVP SCRF=COSMORS geom=CHECKPOINT guess=CHECKPOINT
 ---------------------------------------------------------

 -------------------------------------------
 COSMO-file for #AYFVYJQAPQTCCC-STHAYSLISA-N
 -------------------------------------------
 Structure from the checkpoint file:  "AYFVYJQAPQTCCC-STHAYSLISA-N.chk"
 Charge =  0 Multiplicity = 1

                         Standard orientation:
 ---------------------------------------------------------------------
 Center     Atomic      Atomic             Coordinates (Angstroms)
 Number     Number       Type             X           Y           Z
 ---------------------------------------------------------------------
      1          6           0       -1.542714   -1.604596    0.005388
      2          6           0       -1.109763   -0.189916    0.361777
      3          8           0       -2.201525    0.757191    0.273218
      4          6           0        0.080675    0.286976   -0.510860
      5          7           0        0.222972    1.775303   -0.337023
      6          6           0        1.439785   -0.329418   -0.013618
      7          8           0        1.664395   -1.523849   -0.309403
      8          8           0        2.146299    0.475214    0.678085
      9          1           0       -2.346054   -1.932841    0.678872
     10          1           0       -0.690720   -2.292741    0.088293
     11          1           0       -1.911605   -1.642299   -1.032653
     12          1           0       -0.800473   -0.139166    1.418495
     13          1           0       -2.656700    0.612718   -0.578997
     14          1           0       -0.100101    0.059404   -1.568874
     15          1           0        0.474630    2.255196   -1.207783
     16          1           0        1.043136    1.826478    0.338136
     17          1           0       -0.654162    2.179400    0.032345
 ---------------------------------------------------------------------

 SCF Done:  E(RB-P86) =  -438.483126861     A.U. after   12 cycles

 The electronic state is 1-A.
 Alpha  occ. eigenvalues --  -18.78598 -18.73795 -18.73080 -14.08534  -9.99655
 Alpha  occ. eigenvalues --   -9.96635  -9.95337  -9.89102  -0.96431  -0.95076
 Alpha  occ. eigenvalues --   -0.89619  -0.87311  -0.71247  -0.63754  -0.57042
 Alpha  occ. eigenvalues --   -0.51964  -0.50427  -0.47224  -0.45817  -0.42655
 Alpha  occ. eigenvalues --   -0.41324  -0.39159  -0.37513  -0.36711  -0.34900
 Alpha  occ. eigenvalues --   -0.33844  -0.33356  -0.29877  -0.26079  -0.24128
 Alpha  occ. eigenvalues --   -0.22835  -0.21437
 Alpha virt. eigenvalues --   -0.01437   0.01076   0.03826   0.05203   0.05357
 Alpha virt. eigenvalues --    0.08041   0.08688   0.09535   0.10394   0.10921
 Alpha virt. eigenvalues --    0.12367   0.13036   0.13899   0.15811   0.16822

 Mulliken charges:
               1
     1  C   -0.435747
     2  C    0.008683
     3  O   -0.427533
     4  C   -0.229558
     5  N   -0.256748
     6  C    0.187824
     7  O   -0.460279
     8  O   -0.486848
     9  H    0.160742
    10  H    0.147166
    11  H    0.153776
    12  H    0.162559
    13  H    0.318026
    14  H    0.222655
    15  H    0.327557
    16  H    0.298753
    17  H    0.308972
 Sum of Mulliken charges =  -0.00000

 Dipole moment (field-independent basis, Debye):
    X=             -8.2303    Y=              7.7270    Z=             -4.1993  Tot=             12.0449
 Quadrupole moment (field-independent basis, Debye-Ang):
   XX=            -65.1951   YY=            -43.0349   ZZ=            -45.8813
   XY=              8.5096   XZ=              0.7453   YZ=             -6.9667

 Normal termination of Gaussian 16 at Mon Feb 22 21:00:09 2021.
