 Gaussian 16, Revision C.01,
 Gaussian 16:  ES64L-G16RevC.01  3-Jul-2019

 -------------------------
 #P BP86/TZVP SCRF=COSMORS
 -------------------------

 -------------------------------------
 Particle #AZFQCTBZOPUVOW-UHFFFAOYSA-N
 -------------------------------------
 Symbolic Z-matrix:
 Charge =  1 Multiplicity = 1

                         Standard orientation:
 ---------------------------------------------------------------------
 Center     Atomic      Atomic             Coordinates (Angstroms)
 Number     Number       Type             X           Y           Z
 ---------------------------------------------------------------------
      1          6           0        0.004852    0.014716    2.650399
      2         15           0        0.000701    0.000589    0.827234
      3          6           0       -1.599289   -0.613285    0.216038
      4          6           0       -2.188914   -1.736644    0.823134
      5          6           0       -3.390932   -2.237004    0.317639
      6          6           0       -3.998310   -1.626501   -0.787328
      7          6           0       -3.406103   -0.511707   -1.391467
      8          6           0       -2.204632    0.000740   -0.893263
      9          6           0        1.330530   -1.079821    0.215526
     10          6           0        2.604506   -1.023622    0.809411
     11          6           0        3.632750   -1.821551    0.302535
     12          6           0        3.395005   -2.666314   -0.789384
     13          6           0        2.126936   -2.717017   -1.379237
     14          6           0        1.089044   -1.924345   -0.880751
     15          6           0        0.264180    1.692942    0.212241
     16          6           0       -0.548614    2.731950    0.701516
     17          6           0       -0.371167    4.028108    0.213544
     18          6           0        0.606314    4.286746   -0.756743
     19          6           0        1.408923    3.249368   -1.243970
     20          6           0        1.241548    1.946923   -0.762952
     21          1           0        0.935925    0.477432    3.000417
     22          1           0       -0.853810    0.599716    3.002788
     23          1           0       -0.062146   -1.015069    3.022035
     24          1           0       -1.719413   -2.225194    1.678729
     25          1           0       -3.853234   -3.106340    0.788154
     26          1           0       -4.937498   -2.022434   -1.178208
     27          1           0       -3.878995   -0.035994   -2.252221
     28          1           0       -1.745528    0.872096   -1.363141
     29          1           0        2.802737   -0.365250    1.656898
     30          1           0        4.621472   -1.782752    0.762659
     31          1           0        4.202472   -3.287656   -1.181215
     32          1           0        1.941290   -3.376398   -2.228693
     33          1           0        0.099279   -1.967526   -1.338719
     34          1           0       -1.320464    2.537153    1.448798
     35          1           0       -0.998654    4.837060    0.591264
     36          1           0        0.740404    5.301888   -1.135021
     37          1           0        2.168626    3.450555   -2.001075
     38          1           0        1.867270    1.137777   -1.143284
 ---------------------------------------------------------------------

 SCF Done:  E(RB-P86) =  -1076.32859459     A.U. after   13 cycles

 The electronic state is 1-A.
 Alpha  occ. eigenvalues --  -76.47792  -9.94346  -9.94339  -9.94304  -9.92770
 Alpha  occ. eigenvalues --   -9.92759  -9.92736  -9.92706  -9.92698  -9.92681
 Alpha  occ. eigenvalues --   -9.92590  -9.91989  -9.91988  -9.91969  -9.91859
 Alpha  occ. eigenvalues --   -9.91856  -9.91848  -9.91826  -9.91824  -9.91808
 Alpha  occ. eigenvalues --   -6.40840  -4.62546  -4.62544  -4.62504  -0.81492
 Alpha  occ. eigenvalues --   -0.80103  -0.80088  -0.74719  -0.70096  -0.70057
 Alpha  occ. eigenvalues --   -0.69866  -0.69580  -0.69559  -0.67710  -0.60912
 Alpha  occ. eigenvalues --   -0.57127  -0.57034  -0.56452  -0.55969  -0.55949
 Alpha  occ. eigenvalues --   -0.52557  -0.48949  -0.48921  -0.46574  -0.43391
 Alpha  occ. eigenvalues --   -0.43328  -0.43044  -0.42019  -0.41990  -0.40994
 Alpha  occ. eigenvalues --   -0.40569  -0.40505  -0.39514  -0.39345  -0.39302
 Alpha  occ. eigenvalues --   -0.37715  -0.37365  -0.37279  -0.35355  -0.35276
 Alpha  occ. eigenvalues --   -0.34804  -0.33055  -0.32328  -0.32315  -0.31902
 Alpha  occ. eigenvalues --   -0.31210  -0.31195  -0.26020  -0.25878  -0.25668
 Alpha  occ. eigenvalues --   -0.25169  -0.24997  -0.24980
 Alpha virt. eigenvalues --   -0.08443  -0.08315  -0.08157  -0.07000  -0.05848
 Alpha virt. eigenvalues --   -0.05791   0.01037   0.01215   0.01568   0.02395
 Alpha virt. eigenvalues --    0.04643   0.04697   0.04926   0.05726   0.06036

 Mulliken charges:
               1
     1  C   -0.492113
     2  P    0.437685
     3  C   -0.269974
     4  C   -0.044940
     5  C   -0.131915
     6  C   -0.108866
     7  C   -0.137975
     8  C   -0.021999
     9  C   -0.271300
    10  C   -0.039671
    11  C   -0.127545
    12  C   -0.108682
    13  C   -0.139709
    14  C   -0.019283
    15  C   -0.255300
    16  C   -0.055438
    17  C   -0.124550
    18  C   -0.110625
    19  C   -0.141235
    20  C   -0.027579
    21  H    0.214802
    22  H    0.213695
    23  H    0.214538
    24  H    0.184287
    25  H    0.157736
    26  H    0.160887
    27  H    0.157440
    28  H    0.186027
    29  H    0.183645
    30  H    0.158063
    31  H    0.160412
    32  H    0.157125
    33  H    0.189627
    34  H    0.187807
    35  H    0.158345
    36  H    0.160232
    37  H    0.157032
    38  H    0.189311
 Sum of Mulliken charges =   1.00000

 Dipole moment (field-independent basis, Debye):
    X=              0.0052    Y=             -0.0263    Z=              2.6064  Tot=              2.6066
 Quadrupole moment (field-independent basis, Debye-Ang):
   XX=            -92.8331   YY=            -94.6282   ZZ=           -104.0362
   XY=             -0.1209   XZ=             -0.0068   YZ=             -0.3334

 Normal termination of Gaussian 16 at Tue Feb 23 02:36:34 2021.
