 Gaussian 16, Revision C.01,

 -------------------------------------------------------------
 #P BP86/TZVP EmpiricalDispersion=GD3 SCRF=(Solvent=Water) Opt
 -------------------------------------------------------------

 -------------------------------------
 Particle #BCCDCNCWUHICFM-UHFFFAOYSA-N
 -------------------------------------
 Symbolic Z-matrix:
 Charge =  1 Multiplicity = 1

 SCF Done:  E(RB-P86) =  -681.380770819     A.U. after   13 cycles
 SCF Done:  E(RB-P86) =  -681.408350954     A.U. after   11 cycles
 SCF Done:  E(RB-P86) =  -681.412919235     A.U. after   10 cycles
 SCF Done:  E(RB-P86) =  -681.412824633     A.U. after   10 cycles
 SCF Done:  E(RB-P86) =  -681.412930092     A.U. after   10 cycles
 SCF Done:  E(RB-P86) =  -681.413114931     A.U. after   10 cycles
 SCF Done:  E(RB-P86) =  -681.413120593     A.U. after    8 cycles
 SCF Done:  E(RB-P86) =  -681.413121143     A.U. after    7 cycles
 SCF Done:  E(RB-P86) =  -681.413121260     A.U. after    6 cycles
 Optimization completed.
    -- Stationary point found.

  BP86/TZVP EmpiricalDispersion=GD3 SCRF=(Solvent=Water) Opt\\Particle
 #BCCDCNCWUHICFM-UHFFFAOYSA-N\\1,1\C,-3.179828904,-0.0930489767,1.63499
 94432\C,-2.2428321651,-0.5262154223,0.4979491571\C,-2.8615988674,-0.15
 21298599,-0.844904675\N,-2.0347572742,-0.5249274453,-2.0735242101\C,-1
 .7815164106,-2.032731821,-2.13793018\C,-3.0130636854,-2.9257896483,-2.
 0185278392\C,-2.618779663,-4.3828140369,-2.3019658535\C,-0.6614062271,
 0.1495495545,-2.046277997\C,-0.6595316961,1.6594606805,-1.8256309645\C
 ,0.7623599435,2.2046018517,-2.0250327045\C,-2.8461643624,-0.0565105698

 Normal termination of Gaussian 16 at Tue Feb 23 00:21:20 2021.
 Gaussian 16:  ES64L-G16RevC.01  3-Jul-2019

 ---------------------------------------------------------
 # BP86/TZVP SCRF=COSMORS geom=CHECKPOINT guess=CHECKPOINT
 ---------------------------------------------------------

 -------------------------------------------
 COSMO-file for #BCCDCNCWUHICFM-UHFFFAOYSA-N
 -------------------------------------------
 Structure from the checkpoint file:  "BCCDCNCWUHICFM-UHFFFAOYSA-N.chk"
 Charge =  1 Multiplicity = 1

                         Standard orientation:
 ---------------------------------------------------------------------
 Center     Atomic      Atomic             Coordinates (Angstroms)
 Number     Number       Type             X           Y           Z
 ---------------------------------------------------------------------
      1          6           0        4.673206    0.001249   -0.730661
      2          6           0        3.387824    0.000825    0.109738
      3          6           0        2.173632    0.000419   -0.813195
      4          7           0        0.817421   -0.000006   -0.111168
      5          6           0        0.655528    1.227247    0.788495
      6          6           0        0.930777    2.578830    0.135822
      7          6           0        0.532671    3.704684    1.101576
      8          6           0        0.656253   -1.227421    0.788406
      9          6           0        0.932613   -2.578771    0.135719
     10          6           0        0.535130   -3.704961    1.101336
     11          6           0       -0.259101   -0.000254   -1.229402
     12          6           0       -1.683078   -0.000328   -0.743354
     13          6           0       -2.364422    1.210552   -0.527250
     14          6           0       -3.687238    1.211368   -0.075335
     15          6           0       -4.348768   -0.000436    0.157705
     16          6           0       -3.687093   -1.212187   -0.075196
     17          6           0       -2.364277   -1.211266   -0.527110
     18          1           0        5.556813    0.001550   -0.077663
     19          1           0        4.727086   -0.889677   -1.374585
     20          1           0        4.726489    0.892200   -1.374600
     21          1           0        3.376576    0.885937    0.763321
     22          1           0        3.377166   -0.884291    0.763325
     23          1           0        2.180272    0.883870   -1.464763
     24          1           0        2.180843   -0.883042   -1.464742
     25          1           0       -0.372688    1.177351    1.171463
     26          1           0        1.330133    1.072907    1.640114
     27          1           0        1.997208    2.671863   -0.117939
     28          1           0        0.369602    2.689924   -0.804032
     29          1           0        1.085446    3.628459    2.050181
     30          1           0       -0.543280    3.669263    1.330991
     31          1           0        0.754122    4.685223    0.658269
     32          1           0        1.330601   -1.072634    1.640146
     33          1           0       -0.372064   -1.178290    1.171203
     34          1           0        0.371714   -2.690228   -0.804256
     35          1           0        1.999163   -2.671017   -0.117831
     36          1           0       -0.540895   -3.670340    1.330526
     37          1           0        1.087649   -3.628375    2.050061
     38          1           0        0.757393   -4.685318    0.658030
     39          1           0       -0.046705    0.884131   -1.840536
     40          1           0       -0.046517   -0.884705   -1.840372
     41          1           0       -1.861412    2.160435   -0.720825
     42          1           0       -4.202865    2.159172    0.089456
     43          1           0       -5.381956   -0.000477    0.510352
     44          1           0       -4.202607   -2.160033    0.089702
     45          1           0       -1.861162   -2.161113   -0.720582
 ---------------------------------------------------------------------

 SCF Done:  E(RB-P86) =  -681.364222651     A.U. after   12 cycles

 The electronic state is 1-A.
 Alpha  occ. eigenvalues --  -14.12826  -9.95731  -9.94937  -9.94886  -9.94884
 Alpha  occ. eigenvalues --   -9.92651  -9.91339  -9.91338  -9.91126  -9.91035
 Alpha  occ. eigenvalues --   -9.91028  -9.90808  -9.90803  -9.90755  -9.89085
 Alpha  occ. eigenvalues --   -9.89083  -9.89065  -0.92806  -0.79568  -0.73844
 Alpha  occ. eigenvalues --   -0.73400  -0.72578  -0.70648  -0.68808  -0.66071
 Alpha  occ. eigenvalues --   -0.64006  -0.63815  -0.58689  -0.56505  -0.55907
 Alpha  occ. eigenvalues --   -0.53768  -0.53748  -0.52328  -0.48587  -0.48396
 Alpha  occ. eigenvalues --   -0.47527  -0.44761  -0.44471  -0.41982  -0.41921
 Alpha  occ. eigenvalues --   -0.40809  -0.40807  -0.39107  -0.38269  -0.37713
 Alpha  occ. eigenvalues --   -0.37645  -0.36410  -0.36000  -0.35013  -0.34952
 Alpha  occ. eigenvalues --   -0.34702  -0.34639  -0.33876  -0.33287  -0.32577
 Alpha  occ. eigenvalues --   -0.32361  -0.31107  -0.30924  -0.30729  -0.30533
 Alpha  occ. eigenvalues --   -0.30360  -0.30125  -0.29632  -0.24329  -0.24308
 Alpha virt. eigenvalues --   -0.06682  -0.05536   0.00762   0.02812   0.02852
 Alpha virt. eigenvalues --    0.03017   0.03171   0.04804   0.04950   0.05090
 Alpha virt. eigenvalues --    0.05601   0.05873   0.07367   0.07604   0.07690

 Mulliken charges:
               1
     1  C   -0.449383
     2  C   -0.187835
     3  C   -0.295878
     4  N   -0.140339
     5  C   -0.339564
     6  C   -0.208700
     7  C   -0.449789
     8  C   -0.339127
     9  C   -0.208461
    10  C   -0.449984
    11  C   -0.456322
    12  C    0.008803
    13  C   -0.090478
    14  C   -0.152165
    15  C   -0.119013
    16  C   -0.152213
    17  C   -0.090365
    18  H    0.160638
    19  H    0.146325
    20  H    0.146314
    21  H    0.172907
    22  H    0.172991
    23  H    0.225061
    24  H    0.225226
    25  H    0.240582
    26  H    0.225797
    27  H    0.179389
    28  H    0.175266
    29  H    0.147125
    30  H    0.148084
    31  H    0.161176
    32  H    0.225613
    33  H    0.240490
    34  H    0.175132
    35  H    0.179433
    36  H    0.148104
    37  H    0.147055
    38  H    0.161194
    39  H    0.264863
    40  H    0.264879
    41  H    0.167492
    42  H    0.149670
    43  H    0.152668
    44  H    0.149769
    45  H    0.167573
 Sum of Mulliken charges =   1.00000

 Dipole moment (field-independent basis, Debye):
    X=              3.6237    Y=             -0.0015    Z=             -0.2790  Tot=              3.6345
 Quadrupole moment (field-independent basis, Debye-Ang):
   XX=            -83.9213   YY=            -88.2616   ZZ=           -102.6648
   XY=             -0.0045   XZ=             -2.5924   YZ=              0.0038

 86/TZVP SCRF=COSMORS geom=CHECKPOINT guess=CHECKPOINT\\COSMO-file for
 #BCCDCNCWUHICFM-UHFFFAOYSA-N\\1,1\C,0,-3.179828904,-0.0930489767,1.634
 9994432\C,0,-2.2428321651,-0.5262154223,0.4979491571\C,0,-2.8615988674
 ,-0.1521298599,-0.844904675\N,0,-2.0347572742,-0.5249274453,-2.0735242
 101\C,0,-1.7815164106,-2.032731821,-2.13793018\C,0,-3.0130636854,-2.92
 57896483,-2.0185278392\C,0,-2.618779663,-4.3828140369,-2.3019658535\C,
 0,-0.6614062271,0.1495495545,-2.046277997\C,0,-0.6595316961,1.65946068
 05,-1.8256309645\C,0,0.7623599435,2.2046018517,-2.0250327045\C,0,-2.84

 Normal termination of Gaussian 16 at Tue Feb 23 00:22:25 2021.
