 Gaussian 16, Revision C.01,

 -------------------------------------------------------------
 #P BP86/TZVP EmpiricalDispersion=GD3 SCRF=(Solvent=Water) Opt
 -------------------------------------------------------------

 -------------------------------------
 Particle #BFSVOASYOCHEOV-UHFFFAOYSA-O
 -------------------------------------
 Symbolic Z-matrix:
 Charge =  1 Multiplicity = 1

 SCF Done:  E(RB-P86) =  -368.219218670     A.U. after   11 cycles
 SCF Done:  E(RB-P86) =  -368.227501106     A.U. after   10 cycles
 SCF Done:  E(RB-P86) =  -368.228441534     A.U. after    9 cycles
 SCF Done:  E(RB-P86) =  -368.228594946     A.U. after    9 cycles
 SCF Done:  E(RB-P86) =  -368.228606836     A.U. after    8 cycles
 SCF Done:  E(RB-P86) =  -368.228630222     A.U. after    8 cycles
 SCF Done:  E(RB-P86) =  -368.228637315     A.U. after    8 cycles
 SCF Done:  E(RB-P86) =  -368.228641637     A.U. after    7 cycles
 SCF Done:  E(RB-P86) =  -368.228641872     A.U. after    7 cycles
 SCF Done:  E(RB-P86) =  -368.228642536     A.U. after    7 cycles
 SCF Done:  E(RB-P86) =  -368.228642644     A.U. after    7 cycles
 SCF Done:  E(RB-P86) =  -368.228642740     A.U. after    6 cycles
 SCF Done:  E(RB-P86) =  -368.228642794     A.U. after    6 cycles
 SCF Done:  E(RB-P86) =  -368.228642886     A.U. after    6 cycles
 SCF Done:  E(RB-P86) =  -368.228643014     A.U. after    6 cycles
 Optimization completed.
    -- Stationary point found.
 Normal termination of Gaussian 16 at Tue Feb 23 00:14:26 2021.
 Gaussian 16:  ES64L-G16RevC.01  3-Jul-2019

 ---------------------------------------------------------
 # BP86/TZVP SCRF=COSMORS geom=CHECKPOINT guess=CHECKPOINT
 ---------------------------------------------------------

 -------------------------------------------
 COSMO-file for #BFSVOASYOCHEOV-UHFFFAOYSA-O
 -------------------------------------------
 Structure from the checkpoint file:  "BFSVOASYOCHEOV-UHFFFAOYSA-O.chk"
 Charge =  1 Multiplicity = 1

                         Standard orientation:
 ---------------------------------------------------------------------
 Center     Atomic      Atomic             Coordinates (Angstroms)
 Number     Number       Type             X           Y           Z
 ---------------------------------------------------------------------
      1          6           0       -0.163643    2.510241    0.069974
      2          6           0       -0.807657    1.245798   -0.476204
      3          7           0       -0.578309    0.022408    0.407636
      4          6           0       -1.279431   -1.219567   -0.141931
      5          6           0       -2.794744   -1.130217   -0.038309
      6          6           0        0.878458   -0.239032    0.732805
      7          6           0        1.745993   -0.509846   -0.492801
      8          8           0        3.053126   -0.751564    0.045609
      9          1           0       -0.478150    2.713032    1.104180
     10          1           0        0.933022    2.478931    0.027934
     11          1           0       -0.494673    3.354153   -0.550716
     12          1           0       -1.895147    1.362533   -0.544134
     13          1           0       -0.430680    0.984854   -1.472837
     14          1           0       -1.026449    0.229110    1.313563
     15          1           0       -0.895515   -2.063179    0.445408
     16          1           0       -0.946090   -1.336363   -1.180375
     17          1           0       -3.214920   -2.097494   -0.346413
     18          1           0       -3.220869   -0.360730   -0.694727
     19          1           0       -3.116617   -0.940242    0.996369
     20          1           0        0.900436   -1.103325    1.409013
     21          1           0        1.256543    0.633413    1.279258
     22          1           0        1.375065   -1.386520   -1.051799
     23          1           0        1.749277    0.360883   -1.172085
     24          1           0        3.654061   -0.917665   -0.702175
 ---------------------------------------------------------------------

 SCF Done:  E(RB-P86) =  -368.218531956     A.U. after   10 cycles

 The electronic state is 1-A.
 Alpha  occ. eigenvalues --  -18.78180 -14.12378  -9.95738  -9.95506  -9.95486
 Alpha  occ. eigenvalues --   -9.95464  -9.90122  -9.90105  -0.94852  -0.92749
 Alpha  occ. eigenvalues --   -0.72311  -0.71670  -0.67517  -0.60461  -0.59131
 Alpha  occ. eigenvalues --   -0.55654  -0.50921  -0.47396  -0.46659  -0.43966
 Alpha  occ. eigenvalues --   -0.43290  -0.40747  -0.40019  -0.37502  -0.36268
 Alpha  occ. eigenvalues --   -0.35760  -0.34778  -0.34103  -0.33302  -0.33085
 Alpha  occ. eigenvalues --   -0.31492  -0.30973  -0.24427
 Alpha virt. eigenvalues --    0.00034   0.01554   0.03355   0.03735   0.04641
 Alpha virt. eigenvalues --    0.05487   0.06101   0.07129   0.07615   0.08142
 Alpha virt. eigenvalues --    0.09612   0.09882   0.10107   0.11073   0.11658

 Mulliken charges:
               1
     1  C   -0.422951
     2  C   -0.210067
     3  N   -0.194665
     4  C   -0.178882
     5  C   -0.428478
     6  C   -0.194163
     7  C   -0.193129
     8  O   -0.421849
     9  H    0.166073
    10  H    0.170267
    11  H    0.174767
    12  H    0.196388
    13  H    0.213549
    14  H    0.341681
    15  H    0.195253
    16  H    0.205692
    17  H    0.175557
    18  H    0.162556
    19  H    0.158871
    20  H    0.201045
    21  H    0.216490
    22  H    0.176329
    23  H    0.165238
    24  H    0.324429
 Sum of Mulliken charges =   1.00000

 Dipole moment (field-independent basis, Debye):
    X=             -3.2781    Y=              0.1617    Z=             -0.6504  Tot=              3.3459
 Quadrupole moment (field-independent basis, Debye-Ang):
   XX=            -40.8010   YY=            -42.4171   ZZ=            -44.1070
   XY=              0.2441   XZ=             -7.5496   YZ=              1.4259

 Normal termination of Gaussian 16 at Tue Feb 23 00:14:38 2021.
