 Gaussian 16, Revision C.01,

 -------------------------------------------------------------
 #P BP86/TZVP EmpiricalDispersion=GD3 SCRF=(Solvent=Water) Opt
 -------------------------------------------------------------

 -------------------------------------
 Particle #BGQMOFGZRJUORO-UHFFFAOYSA-M
 -------------------------------------
 Symbolic Z-matrix:
 Charge =  0 Multiplicity = 1

 SCF Done:  E(RB-P86) =  -3103.52376898     A.U. after   12 cycles
 SCF Done:  E(RB-P86) =  -3103.54047040     A.U. after   10 cycles
 SCF Done:  E(RB-P86) =  -3103.54555498     A.U. after   10 cycles
 SCF Done:  E(RB-P86) =  -3103.54795055     A.U. after   10 cycles
 SCF Done:  E(RB-P86) =  -3103.54920993     A.U. after   10 cycles
 SCF Done:  E(RB-P86) =  -3103.55063288     A.U. after   10 cycles
 SCF Done:  E(RB-P86) =  -3103.55109283     A.U. after   10 cycles
 SCF Done:  E(RB-P86) =  -3103.55212105     A.U. after   10 cycles
 SCF Done:  E(RB-P86) =  -3103.55214696     A.U. after   10 cycles
 SCF Done:  E(RB-P86) =  -3103.55226509     A.U. after    9 cycles
 SCF Done:  E(RB-P86) =  -3103.55249520     A.U. after    8 cycles
 SCF Done:  E(RB-P86) =  -3103.55250040     A.U. after    8 cycles
 SCF Done:  E(RB-P86) =  -3103.55249750     A.U. after    8 cycles
 SCF Done:  E(RB-P86) =  -3103.55249729     A.U. after    9 cycles
 SCF Done:  E(RB-P86) =  -3103.55250776     A.U. after    8 cycles
 SCF Done:  E(RB-P86) =  -3103.55250891     A.U. after    7 cycles
 SCF Done:  E(RB-P86) =  -3103.55251004     A.U. after    7 cycles
 SCF Done:  E(RB-P86) =  -3103.55251111     A.U. after    7 cycles
 SCF Done:  E(RB-P86) =  -3103.55251132     A.U. after    6 cycles
 Optimization completed.
    -- Stationary point found.
 Normal termination of Gaussian 16 at Sat Aug 21 09:58:34 2021.
 Gaussian 16:  ES64L-G16RevC.01  3-Jul-2019

 ---------------------------------------------------------
 # BP86/TZVP SCRF=COSMORS geom=CHECKPOINT guess=CHECKPOINT
 ---------------------------------------------------------

 -------------------------------------------
 COSMO-file for #BGQMOFGZRJUORO-UHFFFAOYSA-M
 -------------------------------------------
 Structure from the checkpoint file:  "BGQMOFGZRJUORO-UHFFFAOYSA-M.chk"
 Charge =  0 Multiplicity = 1

                         Standard orientation:
 ---------------------------------------------------------------------
 Center     Atomic      Atomic             Coordinates (Angstroms)
 Number     Number       Type             X           Y           Z
 ---------------------------------------------------------------------
      1          6           0       -0.437582    3.253841   -1.918251
      2          6           0        0.168677    2.516607   -0.714310
      3          6           0        0.101803    1.014196   -0.963002
      4          7           0        0.782870    0.104352    0.065777
      5          6           0        0.108376    0.278927    1.447624
      6          6           0        0.598927    1.400282    2.376353
      7          6           0        1.672269    0.974605    3.388220
      8          6           0        0.457171   -1.326214   -0.398256
      9          6           0        1.173691   -2.464719    0.320348
     10          6           0        0.653165   -3.806773   -0.217243
     11          6           0        2.283805    0.372096    0.151566
     12          6           0        3.084187    0.425964   -1.154537
     13          6           0        3.425069   -0.896756   -1.851917
     14         35           0       -3.336353   -0.404613   -0.101884
     15          1           0        0.132688    3.050756   -2.837720
     16          1           0       -1.479840    2.943029   -2.088343
     17          1           0       -0.431401    4.339511   -1.747738
     18          1           0       -0.396494    2.777362    0.191951
     19          1           0        1.207241    2.850939   -0.565454
     20          1           0       -0.947544    0.679822   -0.986960
     21          1           0        0.557195    0.767349   -1.931216
     22          1           0        0.232400   -0.681782    1.960774
     23          1           0       -0.958664    0.383415    1.204526
     24          1           0        0.929141    2.284172    1.814211
     25          1           0       -0.294953    1.732804    2.928149
     26          1           0        1.891511    1.798077    4.083485
     27          1           0        2.617494    0.687913    2.906271
     28          1           0        1.326673    0.114814    3.982652
     29          1           0       -0.635270   -1.413060   -0.282378
     30          1           0        0.679071   -1.356567   -1.471756
     31          1           0        2.259080   -2.408269    0.160655
     32          1           0        1.006095   -2.416721    1.407071
     33          1           0       -0.428610   -3.912496   -0.044729
     34          1           0        1.161484   -4.643071    0.282611
     35          1           0        0.835630   -3.897872   -1.299054
     36          1           0        2.373366    1.344763    0.645398
     37          1           0        2.690613   -0.382027    0.836421
     38          1           0        4.029085    0.913126   -0.862076
     39          1           0        2.613544    1.125766   -1.861635
     40          1           0        4.111375   -0.705513   -2.689558
     41          1           0        3.929244   -1.591056   -1.163424
     42          1           0        2.544766   -1.406508   -2.266218
 ---------------------------------------------------------------------

 SCF Done:  E(RB-P86) =  -3103.50583417     A.U. after   11 cycles

 The electronic state is 1-A.
 Alpha  occ. eigenvalues -- -481.06248 -61.75459 -55.66582 -55.66580 -55.66579
 Alpha  occ. eigenvalues --  -14.12120  -9.94585  -9.94382  -9.94351  -9.94169
 Alpha  occ. eigenvalues --   -9.90737  -9.90596  -9.90498  -9.90448  -9.89002
 Alpha  occ. eigenvalues --   -9.88947  -9.88799  -9.88670  -8.32824  -6.19856
 Alpha  occ. eigenvalues --   -6.19851  -6.19849  -2.40329  -2.40328  -2.40326
 Alpha  occ. eigenvalues --   -2.40323  -2.40322  -0.91935  -0.73405  -0.72902
 Alpha  occ. eigenvalues --   -0.72697  -0.70646  -0.65187  -0.64033  -0.63277
 Alpha  occ. eigenvalues --   -0.61649  -0.58706  -0.56236  -0.55002  -0.53422
 Alpha  occ. eigenvalues --   -0.51366  -0.48030  -0.46726  -0.44987  -0.43082
 Alpha  occ. eigenvalues --   -0.41613  -0.40581  -0.40018  -0.38954  -0.37909
 Alpha  occ. eigenvalues --   -0.37393  -0.37179  -0.36249  -0.35405  -0.34975
 Alpha  occ. eigenvalues --   -0.34425  -0.34330  -0.32655  -0.32237  -0.31756
 Alpha  occ. eigenvalues --   -0.31579  -0.31202  -0.30695  -0.30089  -0.29999
 Alpha  occ. eigenvalues --   -0.29682  -0.29313  -0.29022  -0.21173  -0.21155
 Alpha  occ. eigenvalues --   -0.20906
 Alpha virt. eigenvalues --    0.01310   0.02142   0.02539   0.03102   0.03626
 Alpha virt. eigenvalues --    0.04729   0.05054   0.05511   0.05995   0.06688
 Alpha virt. eigenvalues --    0.07102   0.07157   0.08513   0.08918   0.09187

 Mulliken charges:
               1
     1  C   -0.459981
     2  C   -0.229884
     3  C   -0.260799
     4  N   -0.133192
     5  C   -0.189409
     6  C   -0.295120
     7  C   -0.425336
     8  C   -0.265546
     9  C   -0.214025
    10  C   -0.445367
    11  C   -0.332807
    12  C   -0.225727
    13  C   -0.442071
    14  Br  -0.924542
    15  H    0.147937
    16  H    0.142859
    17  H    0.159706
    18  H    0.176843
    19  H    0.172780
    20  H    0.170493
    21  H    0.216870
    22  H    0.200354
    23  H    0.178283
    24  H    0.194748
    25  H    0.176621
    26  H    0.154182
    27  H    0.153859
    28  H    0.144869
    29  H    0.173882
    30  H    0.216589
    31  H    0.170710
    32  H    0.160431
    33  H    0.147082
    34  H    0.159960
    35  H    0.144877
    36  H    0.237199
    37  H    0.239843
    38  H    0.169841
    39  H    0.171960
    40  H    0.160298
    41  H    0.152497
    42  H    0.148237
 Sum of Mulliken charges =  -0.00000

 Dipole moment (field-independent basis, Debye):
    X=             19.3066    Y=              2.5968    Z=              0.8130  Tot=             19.4974
 Quadrupole moment (field-independent basis, Debye-Ang):
   XX=           -147.8138   YY=            -98.2398   ZZ=            -99.8852
   XY=             -6.1140   XZ=             -2.8211   YZ=             -0.3240

 Normal termination of Gaussian 16 at Sat Aug 21 09:59:36 2021.
