 Gaussian 16, Revision C.01,

 -------------------------------------------------------------
 #P BP86/TZVP EmpiricalDispersion=GD3 SCRF=(Solvent=Water) Opt
 -------------------------------------------------------------

 -------------------------------------
 Particle #BJEPYKJPYRNKOW-UHFFFAOYSA-N
 -------------------------------------
 Symbolic Z-matrix:
 Charge =  0 Multiplicity = 1

 SCF Done:  E(RB-P86) =  -532.401648172     A.U. after   15 cycles
 SCF Done:  E(RB-P86) =  -532.419882431     A.U. after   11 cycles
 SCF Done:  E(RB-P86) =  -532.422901320     A.U. after   11 cycles
 SCF Done:  E(RB-P86) =  -532.423097955     A.U. after   10 cycles
 SCF Done:  E(RB-P86) =  -532.423267233     A.U. after   11 cycles
 SCF Done:  E(RB-P86) =  -532.423439871     A.U. after   10 cycles
 SCF Done:  E(RB-P86) =  -532.423654331     A.U. after   10 cycles
 SCF Done:  E(RB-P86) =  -532.422990400     A.U. after   14 cycles
 SCF Done:  E(RB-P86) =  -532.424257564     A.U. after   12 cycles
 SCF Done:  E(RB-P86) =  -532.424665540     A.U. after   11 cycles
 SCF Done:  E(RB-P86) =  -532.424890429     A.U. after   11 cycles
 SCF Done:  E(RB-P86) =  -532.424929324     A.U. after   10 cycles
 SCF Done:  E(RB-P86) =  -532.424983705     A.U. after   10 cycles
 SCF Done:  E(RB-P86) =  -532.425005436     A.U. after   11 cycles
 SCF Done:  E(RB-P86) =  -532.425021587     A.U. after    9 cycles
 SCF Done:  E(RB-P86) =  -532.425032821     A.U. after   10 cycles
 SCF Done:  E(RB-P86) =  -532.425034312     A.U. after    9 cycles
 SCF Done:  E(RB-P86) =  -532.425034081     A.U. after    9 cycles
 SCF Done:  E(RB-P86) =  -532.425034200     A.U. after    8 cycles
 Optimization completed.
    -- Stationary point found.
 Normal termination of Gaussian 16 at Mon Feb 22 21:00:54 2021.
 Gaussian 16:  ES64L-G16RevC.01  3-Jul-2019

 ---------------------------------------------------------
 # BP86/TZVP SCRF=COSMORS geom=CHECKPOINT guess=CHECKPOINT
 ---------------------------------------------------------

 -------------------------------------------
 COSMO-file for #BJEPYKJPYRNKOW-UHFFFAOYSA-N
 -------------------------------------------
 Structure from the checkpoint file:  "BJEPYKJPYRNKOW-UHFFFAOYSA-N.chk"
 Charge =  0 Multiplicity = 1

                         Standard orientation:
 ---------------------------------------------------------------------
 Center     Atomic      Atomic             Coordinates (Angstroms)
 Number     Number       Type             X           Y           Z
 ---------------------------------------------------------------------
      1          8           0       -2.066297    0.268647    1.168122
      2          6           0       -1.713186    0.206570    0.001552
      3          8           0       -2.392955   -0.484681   -0.949299
      4          6           0       -0.498493    0.912347   -0.566713
      5          6           0        0.775614    0.707211    0.294521
      6          8           0        1.795672    1.639646   -0.044790
      7          6           0        1.353600   -0.693142    0.074373
      8          8           0        2.453187   -0.950125   -0.374426
      9          8           0        0.445565   -1.634616    0.443489
     10          1           0       -3.177540   -0.889488   -0.518522
     11          1           0       -0.317963    0.618543   -1.608529
     12          1           0       -0.733189    1.988749   -0.553228
     13          1           0        0.490865    0.780415    1.360425
     14          1           0        1.518802    2.510518    0.292998
     15          1           0        0.832442   -2.517624    0.259690
 ---------------------------------------------------------------------

 SCF Done:  E(RB-P86) =  -532.423936234     A.U. after   11 cycles

 The electronic state is 1-A.
 Alpha  occ. eigenvalues --  -18.82912 -18.82601 -18.78878 -18.78048 -18.77357
 Alpha  occ. eigenvalues --  -10.04141 -10.04042  -9.98251  -9.92555  -1.03353
 Alpha  occ. eigenvalues --   -1.02722  -0.96227  -0.94811  -0.94512  -0.73412
 Alpha  occ. eigenvalues --   -0.65408  -0.57701  -0.54832  -0.49276  -0.45855
 Alpha  occ. eigenvalues --   -0.45629  -0.44744  -0.44332  -0.42612  -0.40566
 Alpha  occ. eigenvalues --   -0.38091  -0.36957  -0.36283  -0.34726  -0.32185
 Alpha  occ. eigenvalues --   -0.30258  -0.29539  -0.26079  -0.25818  -0.24824
 Alpha virt. eigenvalues --   -0.06438  -0.04445   0.01784   0.02554   0.04007
 Alpha virt. eigenvalues --    0.06880   0.07423   0.08209   0.12134   0.12693
 Alpha virt. eigenvalues --    0.14974   0.15690   0.16327   0.17292   0.18704

 Mulliken charges:
               1
     1  O   -0.349813
     2  C    0.190069
     3  O   -0.272128
     4  C   -0.297746
     5  C   -0.079700
     6  O   -0.410161
     7  C    0.215003
     8  O   -0.340820
     9  O   -0.274031
    10  H    0.334403
    11  H    0.178897
    12  H    0.226635
    13  H    0.210154
    14  H    0.328590
    15  H    0.340649
 Sum of Mulliken charges =  -0.00000

 Dipole moment (field-independent basis, Debye):
    X=             -3.5388    Y=              0.3680    Z=             -0.3178  Tot=              3.5721
 Quadrupole moment (field-independent basis, Debye-Ang):
   XX=            -62.4035   YY=            -36.6963   ZZ=            -56.2780
   XY=              3.0531   XZ=              8.7010   YZ=              0.2702

 Normal termination of Gaussian 16 at Mon Feb 22 21:01:03 2021.
