 Gaussian 16, Revision C.01,

 -------------------------------------------------------------
 #P BP86/TZVP EmpiricalDispersion=GD3 SCRF=(Solvent=Water) Opt
 -------------------------------------------------------------

 -------------------------------------
 Particle #BMQZYMYBQZGEEY-UHFFFAOYSA-M
 -------------------------------------
 Symbolic Z-matrix:
 Charge =  0 Multiplicity = 1

 SCF Done:  E(RB-P86) =  -805.172079512     A.U. after   13 cycles
 SCF Done:  E(RB-P86) =  -805.179068653     A.U. after   11 cycles
 SCF Done:  E(RB-P86) =  -805.180368037     A.U. after   11 cycles
 SCF Done:  E(RB-P86) =  -805.179839325     A.U. after   12 cycles
 SCF Done:  E(RB-P86) =  -805.180348293     A.U. after   11 cycles
 SCF Done:  E(RB-P86) =  -805.180774548     A.U. after   10 cycles
 SCF Done:  E(RB-P86) =  -805.181116838     A.U. after   10 cycles
 SCF Done:  E(RB-P86) =  -805.181239671     A.U. after   10 cycles
 SCF Done:  E(RB-P86) =  -805.181334879     A.U. after   10 cycles
 SCF Done:  E(RB-P86) =  -805.181443856     A.U. after   10 cycles
 SCF Done:  E(RB-P86) =  -805.181706523     A.U. after    8 cycles
 SCF Done:  E(RB-P86) =  -805.181702169     A.U. after    8 cycles
 SCF Done:  E(RB-P86) =  -805.181701820     A.U. after    7 cycles
 SCF Done:  E(RB-P86) =  -805.181706171     A.U. after    9 cycles
 SCF Done:  E(RB-P86) =  -805.181701485     A.U. after    9 cycles
 SCF Done:  E(RB-P86) =  -805.181706113     A.U. after    9 cycles
 SCF Done:  E(RB-P86) =  -805.181706426     A.U. after    8 cycles
 SCF Done:  E(RB-P86) =  -805.181700747     A.U. after    9 cycles
 SCF Done:  E(RB-P86) =  -805.181701212     A.U. after    6 cycles
 Optimization completed on the basis of negligible forces.
    -- Stationary point found.
 Normal termination of Gaussian 16 at Sat Aug 21 09:39:00 2021.
 Gaussian 16:  ES64L-G16RevC.01  3-Jul-2019

 ---------------------------------------------------------
 # BP86/TZVP SCRF=COSMORS geom=CHECKPOINT guess=CHECKPOINT
 ---------------------------------------------------------

 -------------------------------------------
 COSMO-file for #BMQZYMYBQZGEEY-UHFFFAOYSA-M
 -------------------------------------------
 Structure from the checkpoint file:  "BMQZYMYBQZGEEY-UHFFFAOYSA-M.chk"
 Charge =  0 Multiplicity = 1

                         Standard orientation:
 ---------------------------------------------------------------------
 Center     Atomic      Atomic             Coordinates (Angstroms)
 Number     Number       Type             X           Y           Z
 ---------------------------------------------------------------------
      1          6           0        1.118705    2.503054    0.807908
      2          6           0        0.812780    1.724464   -0.469948
      3          7           0       -0.393951    0.882289   -0.319096
      4          6           0       -1.710432    1.318044   -0.336630
      5          6           0       -2.495512    0.223835   -0.093468
      6          7           0       -1.640918   -0.856829    0.075110
      7          6           0       -2.052948   -2.238530    0.347983
      8          6           0       -0.370636   -0.437707   -0.063234
      9         17           0        2.822748   -1.410292   -0.086954
     10          1           0        2.019074    3.114069    0.652267
     11          1           0        0.291016    3.173326    1.080436
     12          1           0        1.307742    1.814496    1.643856
     13          1           0        1.634721    1.037414   -0.718583
     14          1           0        0.635365    2.392776   -1.323055
     15          1           0       -1.972309    2.352564   -0.524393
     16          1           0       -3.572187    0.118921   -0.031058
     17          1           0       -2.631654   -2.268157    1.278933
     18          1           0       -1.156218   -2.857955    0.451747
     19          1           0       -2.663403   -2.608925   -0.484427
     20          1           0        0.553480   -1.030751    0.004729
 ---------------------------------------------------------------------

 SCF Done:  E(RB-P86) =  -805.174199994     A.U. after   10 cycles

 The electronic state is 1-A.
 Alpha  occ. eigenvalues -- -100.64837 -14.09969 -14.09510  -9.98770  -9.95470
 Alpha  occ. eigenvalues --   -9.95422  -9.94911  -9.94529  -9.89591  -9.08716
 Alpha  occ. eigenvalues --   -6.90545  -6.90525  -6.90515  -0.99232  -0.88214
 Alpha  occ. eigenvalues --   -0.74192  -0.71117  -0.67019  -0.63865  -0.60692
 Alpha  occ. eigenvalues --   -0.57899  -0.55434  -0.50434  -0.45788  -0.44113
 Alpha  occ. eigenvalues --   -0.42973  -0.42583  -0.41304  -0.39926  -0.39339
 Alpha  occ. eigenvalues --   -0.36835  -0.35327  -0.34003  -0.31998  -0.27790
 Alpha  occ. eigenvalues --   -0.24659  -0.21833  -0.21747  -0.21651
 Alpha virt. eigenvalues --   -0.05638  -0.03178   0.03417   0.03933   0.04924
 Alpha virt. eigenvalues --    0.06331   0.07354   0.07387   0.07953   0.09336
 Alpha virt. eigenvalues --    0.09638   0.10427   0.10854   0.11053   0.11834

 Mulliken charges:
               1
     1  C   -0.394640
     2  C   -0.153046
     3  N   -0.028868
     4  C   -0.061441
     5  C   -0.072873
     6  N   -0.035705
     7  C   -0.293187
     8  C    0.073260
     9  Cl  -0.882414
    10  H    0.166233
    11  H    0.153274
    12  H    0.142822
    13  H    0.139581
    14  H    0.183170
    15  H    0.192298
    16  H    0.198070
    17  H    0.187825
    18  H    0.180968
    19  H    0.188623
    20  H    0.116052
 Sum of Mulliken charges =  -0.00000

 Dipole moment (field-independent basis, Debye):
    X=            -16.6042    Y=              6.0608    Z=              0.1470  Tot=             17.6764
 Quadrupole moment (field-independent basis, Debye-Ang):
   XX=            -81.1659   YY=            -54.8467   ZZ=            -64.0284
   XY=             23.0768   XZ=              0.2763   YZ=             -3.7096

 Normal termination of Gaussian 16 at Sat Aug 21 09:39:13 2021.
