 Gaussian 16, Revision C.01,

 -------------------------------------------------------------
 #P BP86/TZVP EmpiricalDispersion=GD3 SCRF=(Solvent=Water) Opt
 -------------------------------------------------------------

 -------------------------------------
 Particle #BNQRPLGZFADFGA-UHFFFAOYSA-N
 -------------------------------------
 Symbolic Z-matrix:
 Charge =  1 Multiplicity = 1

 SCF Done:  E(RB-P86) =  -1307.39137098     A.U. after   15 cycles
 SCF Done:  E(RB-P86) =  -1307.45540635     A.U. after   12 cycles
 SCF Done:  E(RB-P86) =  -1307.49063062     A.U. after   12 cycles
 SCF Done:  E(RB-P86) =  -1307.49128006     A.U. after   11 cycles
 SCF Done:  E(RB-P86) =  -1307.49154033     A.U. after   11 cycles
 SCF Done:  E(RB-P86) =  -1307.49162943     A.U. after   10 cycles
 SCF Done:  E(RB-P86) =  -1307.49169988     A.U. after   10 cycles
 SCF Done:  E(RB-P86) =  -1307.49180529     A.U. after   11 cycles
 SCF Done:  E(RB-P86) =  -1307.49190454     A.U. after   11 cycles
 SCF Done:  E(RB-P86) =  -1307.49199396     A.U. after   11 cycles
 SCF Done:  E(RB-P86) =  -1307.49328768     A.U. after    7 cycles
 SCF Done:  E(RB-P86) =  -1307.49328737     A.U. after    8 cycles
 SCF Done:  E(RB-P86) =  -1307.49328740     A.U. after    7 cycles
 SCF Done:  E(RB-P86) =  -1307.49328772     A.U. after    8 cycles
 SCF Done:  E(RB-P86) =  -1307.49328744     A.U. after    9 cycles
 SCF Done:  E(RB-P86) =  -1307.49328772     A.U. after    7 cycles
 SCF Done:  E(RB-P86) =  -1307.49328811     A.U. after    7 cycles
 SCF Done:  E(RB-P86) =  -1307.49328841     A.U. after    7 cycles
 SCF Done:  E(RB-P86) =  -1307.49328870     A.U. after    6 cycles
 Optimization completed.
    -- Stationary point found.

  BP86/TZVP EmpiricalDispersion=GD3 SCRF=(Solvent=Water) Opt\\Particle
 #BNQRPLGZFADFGA-UHFFFAOYSA-N\\1,1\C,-2.4537420546,-5.2803968277,-0.412
 1342327\C,-3.2440257609,-4.1263263037,-0.3537597732\C,-2.8443886266,-3
 .0425793583,0.4341863731\C,-1.6548582857,-3.105256174,1.1787623078\C,-
 1.1945949208,-1.9018125463,1.9607544582\P,0.0717147088,-0.9168755039,1
 .0205961959\C,-0.5309171645,-0.5926270066,-0.6646679179\C,-0.705485989
 3,-1.6678679977,-1.5586305818\C,-1.1960929407,-1.4196888943,-2.8418925
 97\C,-1.5120295151,-0.1130792506,-3.2347835257\C,-1.3329388809,0.95325

 Normal termination of Gaussian 16 at Tue Feb 23 01:16:59 2021.
 Gaussian 16:  ES64L-G16RevC.01  3-Jul-2019

 ---------------------------------------------------------
 # BP86/TZVP SCRF=COSMORS geom=CHECKPOINT guess=CHECKPOINT
 ---------------------------------------------------------

 -------------------------------------------
 COSMO-file for #BNQRPLGZFADFGA-UHFFFAOYSA-N
 -------------------------------------------
 Structure from the checkpoint file:  "BNQRPLGZFADFGA-UHFFFAOYSA-N.chk"
 Charge =  1 Multiplicity = 1

                         Standard orientation:
 ---------------------------------------------------------------------
 Center     Atomic      Atomic             Coordinates (Angstroms)
 Number     Number       Type             X           Y           Z
 ---------------------------------------------------------------------
      1          6           0       -4.654624   -0.032842   -1.145963
      2          6           0       -3.997624   -1.232003   -1.446297
      3          6           0       -2.625346   -1.230965   -1.714492
      4          6           0       -1.897763   -0.029508   -1.693788
      5          6           0       -0.405732   -0.051868   -1.905859
      6         15           0        0.516528   -0.018476   -0.291591
      7          6           0       -0.151736   -1.290964    0.823135
      8          6           0       -1.471485   -1.170759    1.302300
      9          6           0       -1.991880   -2.163907    2.134103
     10          6           0       -1.207752   -3.269294    2.487190
     11          6           0        0.104295   -3.383280    2.013501
     12          6           0        0.638946   -2.395519    1.181272
     13          6           0        0.323285    1.629702    0.456439
     14          6           0        0.001197    1.772951    1.815375
     15          6           0       -0.109396    3.054202    2.364738
     16          6           0        0.104872    4.182823    1.566573
     17          6           0        0.440940    4.036823    0.214160
     18          6           0        0.554807    2.763178   -0.345304
     19          6           0        2.283450   -0.323938   -0.604752
     20          6           0        2.677735   -1.318746   -1.518072
     21          6           0        4.038070   -1.569761   -1.714488
     22          6           0        4.998304   -0.835926   -1.007106
     23          6           0        4.602257    0.151708   -0.097564
     24          6           0        3.244987    0.412669    0.108237
     25          6           0       -2.565412    1.173308   -1.405208
     26          6           0       -3.936473    1.169816   -1.130159
     27          1           0       -5.724477   -0.033989   -0.928449
     28          1           0       -4.551973   -2.172280   -1.463573
     29          1           0       -2.109699   -2.170550   -1.925891
     30          1           0       -0.082428   -0.964643   -2.424777
     31          1           0       -0.041422    0.811240   -2.481216
     32          1           0       -2.087458   -0.311312    1.033886
     33          1           0       -3.013450   -2.071615    2.506068
     34          1           0       -1.620266   -4.042651    3.137855
     35          1           0        0.717674   -4.241358    2.293068
     36          1           0        1.663992   -2.485364    0.818730
     37          1           0       -0.161125    0.896319    2.443322
     38          1           0       -0.363532    3.166628    3.419889
     39          1           0        0.014358    5.180827    1.999150
     40          1           0        0.615730    4.916245   -0.407515
     41          1           0        0.827575    2.662482   -1.397457
     42          1           0        1.940450   -1.905846   -2.067983
     43          1           0        4.346552   -2.340327   -2.422723
     44          1           0        6.059667   -1.035157   -1.165911
     45          1           0        5.350393    0.724030    0.453308
     46          1           0        2.938095    1.185232    0.815152
     47          1           0       -2.009327    2.112882   -1.385693
     48          1           0       -4.444786    2.108954   -0.903212
 ---------------------------------------------------------------------

 SCF Done:  E(RB-P86) =  -1307.44010207     A.U. after   13 cycles

 The electronic state is 1-A.
 Alpha  occ. eigenvalues --  -76.47886  -9.94520  -9.94494  -9.94424  -9.94006
 Alpha  occ. eigenvalues --   -9.92875  -9.92849  -9.92840  -9.92789  -9.92774
 Alpha  occ. eigenvalues --   -9.92724  -9.92707  -9.92067  -9.92047  -9.91967
 Alpha  occ. eigenvalues --   -9.91929  -9.91914  -9.91890  -9.91880  -9.91770
 Alpha  occ. eigenvalues --   -9.91764  -9.91043  -9.91028  -9.90943  -9.90890
 Alpha  occ. eigenvalues --   -9.90853  -6.40920  -4.62631  -4.62621  -4.62584
 Alpha  occ. eigenvalues --   -0.81690  -0.80194  -0.80131  -0.79525  -0.75038
 Alpha  occ. eigenvalues --   -0.71492  -0.70236  -0.70173  -0.69763  -0.69634
 Alpha  occ. eigenvalues --   -0.69566  -0.68592  -0.65491  -0.61077  -0.57337
 Alpha  occ. eigenvalues --   -0.57161  -0.56465  -0.56093  -0.56034  -0.55652
 Alpha  occ. eigenvalues --   -0.54151  -0.52454  -0.49018  -0.48900  -0.47283
 Alpha  occ. eigenvalues --   -0.46550  -0.43739  -0.43425  -0.43114  -0.42702
 Alpha  occ. eigenvalues --   -0.42123  -0.42025  -0.41713  -0.41242  -0.40149
 Alpha  occ. eigenvalues --   -0.39684  -0.39551  -0.39352  -0.39134  -0.38301
 Alpha  occ. eigenvalues --   -0.38194  -0.37607  -0.36352  -0.35483  -0.35259
 Alpha  occ. eigenvalues --   -0.34959  -0.34250  -0.32925  -0.32452  -0.32394
 Alpha  occ. eigenvalues --   -0.31835  -0.31710  -0.31241  -0.31025  -0.30724
 Alpha  occ. eigenvalues --   -0.26241  -0.25910  -0.25731  -0.25338  -0.25158
 Alpha  occ. eigenvalues --   -0.25010  -0.23939  -0.23492
 Alpha virt. eigenvalues --   -0.08932  -0.08512  -0.08086  -0.06985  -0.06158
 Alpha virt. eigenvalues --   -0.05922  -0.05751  -0.05054   0.00650   0.01356
 Alpha virt. eigenvalues --    0.01818   0.02471   0.03595   0.04243   0.04582

 Mulliken charges:
               1
     1  C   -0.119896
     2  C   -0.155301
     3  C   -0.064041
     4  C   -0.036248
     5  C   -0.549254
     6  P    0.433661
     7  C   -0.215370
     8  C   -0.037192
     9  C   -0.158597
    10  C   -0.102018
    11  C   -0.151192
    12  C   -0.044762
    13  C   -0.282582
    14  C   -0.024492
    15  C   -0.144802
    16  C   -0.109893
    17  C   -0.109624
    18  C   -0.070720
    19  C   -0.259045
    20  C   -0.035186
    21  C   -0.119364
    22  C   -0.106210
    23  C   -0.137881
    24  C   -0.031566
    25  C   -0.085832
    26  C   -0.172855
    27  H    0.152057
    28  H    0.149479
    29  H    0.154853
    30  H    0.252632
    31  H    0.266662
    32  H    0.226765
    33  H    0.154299
    34  H    0.158230
    35  H    0.156117
    36  H    0.188175
    37  H    0.193005
    38  H    0.157272
    39  H    0.159719
    40  H    0.156848
    41  H    0.180621
    42  H    0.186905
    43  H    0.157983
    44  H    0.160358
    45  H    0.158241
    46  H    0.191343
    47  H    0.179778
    48  H    0.148918
 Sum of Mulliken charges =   1.00000

 Dipole moment (field-independent basis, Debye):
    X=              2.7411    Y=              0.0068    Z=             -0.2263  Tot=              2.7504
 Quadrupole moment (field-independent basis, Debye-Ang):
   XX=           -120.9682   YY=           -119.4043   ZZ=           -141.1394
   XY=             -1.2437   XZ=             -9.9992   YZ=              2.5312

 86/TZVP SCRF=COSMORS geom=CHECKPOINT guess=CHECKPOINT\\COSMO-file for
 #BNQRPLGZFADFGA-UHFFFAOYSA-N\\1,1\C,0,-2.4537420546,-5.2803968277,-0.4
 121342327\C,0,-3.2440257609,-4.1263263037,-0.3537597732\C,0,-2.8443886
 266,-3.0425793583,0.4341863731\C,0,-1.6548582857,-3.105256174,1.178762
 3078\C,0,-1.1945949208,-1.9018125463,1.9607544582\P,0,0.0717147088,-0.
 9168755039,1.0205961959\C,0,-0.5309171645,-0.5926270066,-0.6646679179\
 C,0,-0.7054859893,-1.6678679977,-1.5586305818\C,0,-1.1960929407,-1.419
 6888943,-2.841892597\C,0,-1.5120295151,-0.1130792506,-3.2347835257\C,0

 Normal termination of Gaussian 16 at Tue Feb 23 01:18:59 2021.
