 Gaussian 16, Revision C.01,

 -------------------------------------------------------------
 #P BP86/TZVP EmpiricalDispersion=GD3 SCRF=(Solvent=Water) Opt
 -------------------------------------------------------------

 -------------------------------------
 Particle #BOOXKGZZTBKJFE-UHFFFAOYSA-M
 -------------------------------------
 Symbolic Z-matrix:
 Charge =  0 Multiplicity = 1

 SCF Done:  E(RB-P86) =  -870.172718440     A.U. after   13 cycles
 SCF Done:  E(RB-P86) =  -870.183491066     A.U. after   10 cycles
 SCF Done:  E(RB-P86) =  -870.185549533     A.U. after   10 cycles
 SCF Done:  E(RB-P86) =  -870.186093834     A.U. after   10 cycles
 SCF Done:  E(RB-P86) =  -870.186525604     A.U. after   10 cycles
 SCF Done:  E(RB-P86) =  -870.186819780     A.U. after    9 cycles
 SCF Done:  E(RB-P86) =  -870.187073924     A.U. after    9 cycles
 SCF Done:  E(RB-P86) =  -870.187393872     A.U. after   10 cycles
 SCF Done:  E(RB-P86) =  -870.187592276     A.U. after    9 cycles
 SCF Done:  E(RB-P86) =  -870.187633238     A.U. after    8 cycles
 SCF Done:  E(RB-P86) =  -870.187755440     A.U. after    7 cycles
 SCF Done:  E(RB-P86) =  -870.187756583     A.U. after    7 cycles
 SCF Done:  E(RB-P86) =  -870.187757320     A.U. after    6 cycles
 SCF Done:  E(RB-P86) =  -870.187757727     A.U. after    6 cycles
 SCF Done:  E(RB-P86) =  -870.187758077     A.U. after    6 cycles
 SCF Done:  E(RB-P86) =  -870.187758226     A.U. after    6 cycles
 SCF Done:  E(RB-P86) =  -870.187758344     A.U. after    6 cycles
 SCF Done:  E(RB-P86) =  -870.187758396     A.U. after    6 cycles
 SCF Done:  E(RB-P86) =  -870.187758439     A.U. after    6 cycles
 Optimization completed.
    -- Stationary point found.
 Normal termination of Gaussian 16 at Sat Aug 21 09:42:37 2021.
 Gaussian 16:  ES64L-G16RevC.01  3-Jul-2019

 ---------------------------------------------------------
 # BP86/TZVP SCRF=COSMORS geom=CHECKPOINT guess=CHECKPOINT
 ---------------------------------------------------------

 -------------------------------------------
 COSMO-file for #BOOXKGZZTBKJFE-UHFFFAOYSA-M
 -------------------------------------------
 Structure from the checkpoint file:  "BOOXKGZZTBKJFE-UHFFFAOYSA-M.chk"
 Charge =  0 Multiplicity = 1

                         Standard orientation:
 ---------------------------------------------------------------------
 Center     Atomic      Atomic             Coordinates (Angstroms)
 Number     Number       Type             X           Y           Z
 ---------------------------------------------------------------------
      1          6           0       -4.376234    0.569886   -0.588813
      2          6           0       -3.683860   -0.324079    0.449055
      3          6           0       -2.193249   -0.591761    0.159167
      4          6           0       -1.382430    0.698242    0.221120
      5          7           0        0.135305    0.563387    0.109955
      6          6           0        0.719309    1.952338    0.192616
      7          6           0        0.577453   -0.111138   -1.190029
      8          6           0        0.643852   -1.611439   -0.900634
      9          6           0        0.872883   -1.736569    0.630085
     10          6           0        0.729026   -0.321633    1.211687
     11         17           0        3.961837    0.297889   -0.113023
     12          1           0       -3.986834    1.599246   -0.576571
     13          1           0       -4.237824    0.170489   -1.606399
     14          1           0       -5.457430    0.628616   -0.394488
     15          1           0       -3.785545    0.117978    1.455050
     16          1           0       -4.194175   -1.299524    0.488304
     17          1           0       -1.815125   -1.314623    0.897008
     18          1           0       -2.102017   -1.052794   -0.835916
     19          1           0       -1.559842    1.210787    1.178130
     20          1           0       -1.671076    1.381195   -0.588847
     21          1           0        0.324763    2.549320   -0.637902
     22          1           0        0.426640    2.400146    1.149504
     23          1           0        1.811747    1.860020    0.122841
     24          1           0       -0.114049    0.184454   -1.988234
     25          1           0        1.584572    0.277275   -1.390292
     26          1           0       -0.278014   -2.123480   -1.201381
     27          1           0        1.469801   -2.055382   -1.470932
     28          1           0        1.884495   -2.102102    0.846291
     29          1           0        0.155793   -2.435762    1.078961
     30          1           0        0.086057   -0.245277    2.096316
     31          1           0        1.719208    0.098514    1.424737
 ---------------------------------------------------------------------

 SCF Done:  E(RB-P86) =  -870.158687651     A.U. after   10 cycles

 The electronic state is 1-A.
 Alpha  occ. eigenvalues -- -100.64464 -14.12048  -9.94616  -9.94172  -9.94168
 Alpha  occ. eigenvalues --   -9.93595  -9.90516  -9.90506  -9.90303  -9.89746
 Alpha  occ. eigenvalues --   -9.88378  -9.08329  -6.90149  -6.90147  -6.90135
 Alpha  occ. eigenvalues --   -0.92691  -0.74459  -0.73203  -0.68531  -0.67091
 Alpha  occ. eigenvalues --   -0.63612  -0.63265  -0.60210  -0.54917  -0.54458
 Alpha  occ. eigenvalues --   -0.52086  -0.47865  -0.46443  -0.44596  -0.42005
 Alpha  occ. eigenvalues --   -0.40724  -0.39795  -0.39040  -0.38749  -0.36809
 Alpha  occ. eigenvalues --   -0.35196  -0.34805  -0.34673  -0.33232  -0.32649
 Alpha  occ. eigenvalues --   -0.32298  -0.31759  -0.30061  -0.29830  -0.28988
 Alpha  occ. eigenvalues --   -0.28356  -0.21398  -0.21386  -0.21108
 Alpha virt. eigenvalues --    0.01315   0.02174   0.03107   0.03524   0.04138
 Alpha virt. eigenvalues --    0.05086   0.05568   0.06509   0.07454   0.08126
 Alpha virt. eigenvalues --    0.08623   0.08983   0.09572   0.09849   0.09988

 Mulliken charges:
               1
     1  C   -0.451438
     2  C   -0.255300
     3  C   -0.256190
     4  C   -0.259564
     5  N   -0.159279
     6  C   -0.267603
     7  C   -0.211145
     8  C   -0.273613
     9  C   -0.270569
    10  C   -0.230619
    11  Cl  -0.884698
    12  H    0.150113
    13  H    0.137890
    14  H    0.151522
    15  H    0.143291
    16  H    0.156330
    17  H    0.180071
    18  H    0.164358
    19  H    0.195176
    20  H    0.216627
    21  H    0.188896
    22  H    0.189493
    23  H    0.149235
    24  H    0.211013
    25  H    0.174093
    26  H    0.183446
    27  H    0.185712
    28  H    0.160525
    29  H    0.184049
    30  H    0.209355
    31  H    0.188822
 Sum of Mulliken charges =  -0.00000

 Dipole moment (field-independent basis, Debye):
    X=            -17.5628    Y=              0.3586    Z=              0.9794  Tot=             17.5938
 Quadrupole moment (field-independent basis, Debye-Ang):
   XX=           -140.9443   YY=            -72.4533   ZZ=            -74.6469
   XY=             -4.8405   XZ=              1.5368   YZ=              0.6648

 Normal termination of Gaussian 16 at Sat Aug 21 09:43:04 2021.
