 Gaussian 16, Revision C.01,

 -------------------------------------------------------------
 #P BP86/TZVP EmpiricalDispersion=GD3 SCRF=(Solvent=Water) Opt
 -------------------------------------------------------------

 -------------------------------------
 Particle #BPRYUXCVCCNUFE-UHFFFAOYSA-N
 -------------------------------------
 Symbolic Z-matrix:
 Charge =  0 Multiplicity = 1

 SCF Done:  E(RB-P86) =  -425.566169904     A.U. after   13 cycles
 SCF Done:  E(RB-P86) =  -425.578025289     A.U. after   11 cycles
 SCF Done:  E(RB-P86) =  -425.578622495     A.U. after   11 cycles
 SCF Done:  E(RB-P86) =  -425.578975181     A.U. after   11 cycles
 SCF Done:  E(RB-P86) =  -425.579179378     A.U. after   11 cycles
 SCF Done:  E(RB-P86) =  -425.579222554     A.U. after    9 cycles
 SCF Done:  E(RB-P86) =  -425.579243494     A.U. after    9 cycles
 SCF Done:  E(RB-P86) =  -425.579244525     A.U. after    7 cycles
 SCF Done:  E(RB-P86) =  -425.579246205     A.U. after    8 cycles
 SCF Done:  E(RB-P86) =  -425.579247298     A.U. after    8 cycles
 SCF Done:  E(RB-P86) =  -425.579248801     A.U. after    7 cycles
 SCF Done:  E(RB-P86) =  -425.579248983     A.U. after    7 cycles
 SCF Done:  E(RB-P86) =  -425.579249228     A.U. after    7 cycles
 SCF Done:  E(RB-P86) =  -425.579249441     A.U. after    7 cycles
 SCF Done:  E(RB-P86) =  -425.579249666     A.U. after    7 cycles
 SCF Done:  E(RB-P86) =  -425.579250031     A.U. after    7 cycles
 SCF Done:  E(RB-P86) =  -425.579250432     A.U. after    8 cycles
 SCF Done:  E(RB-P86) =  -425.579250633     A.U. after    7 cycles
 SCF Done:  E(RB-P86) =  -425.579250747     A.U. after    7 cycles
 Optimization completed.
    -- Stationary point found.
 Normal termination of Gaussian 16 at Mon Feb 22 21:02:51 2021.
 Gaussian 16:  ES64L-G16RevC.01  3-Jul-2019

 ---------------------------------------------------------
 # BP86/TZVP SCRF=COSMORS geom=CHECKPOINT guess=CHECKPOINT
 ---------------------------------------------------------

 -------------------------------------------
 COSMO-file for #BPRYUXCVCCNUFE-UHFFFAOYSA-N
 -------------------------------------------
 Structure from the checkpoint file:  "BPRYUXCVCCNUFE-UHFFFAOYSA-N.chk"
 Charge =  0 Multiplicity = 1

                         Standard orientation:
 ---------------------------------------------------------------------
 Center     Atomic      Atomic             Coordinates (Angstroms)
 Number     Number       Type             X           Y           Z
 ---------------------------------------------------------------------
      1          6           0       -3.243407   -0.046413    0.014006
      2          6           0       -1.731673   -0.025348   -0.012957
      3          6           0       -1.026169    1.189384   -0.010281
      4          6           0        0.373841    1.240827   -0.001040
      5          6           0        1.124534    2.548495   -0.002742
      6          6           0        1.082690    0.023166    0.005622
      7          8           0        2.463173    0.116114    0.011292
      8          6           0        0.415826   -1.217703   -0.000914
      9          6           0        1.201969   -2.507560   -0.003005
     10          6           0       -0.987937   -1.213958   -0.009995
     11          1           0       -3.668172    0.773030   -0.585423
     12          1           0       -3.639398   -0.995567   -0.376010
     13          1           0       -3.625866    0.071495    1.041994
     14          1           0       -1.582301    2.132114   -0.017920
     15          1           0        1.781773    2.630654   -0.883344
     16          1           0        0.430763    3.400348   -0.008083
     17          1           0        1.775206    2.636625    0.882098
     18          1           0        2.848595   -0.779335    0.012061
     19          1           0        1.850654   -2.594328   -0.892229
     20          1           0        0.529033   -3.375241   -0.006277
     21          1           0        1.847630   -2.598996    0.887931
     22          1           0       -1.511347   -2.175051   -0.017302
 ---------------------------------------------------------------------

 SCF Done:  E(RB-P86) =  -425.565895845     A.U. after   11 cycles

 The electronic state is 1-A.
 Alpha  occ. eigenvalues --  -18.79968  -9.95263  -9.90871  -9.90620  -9.90207
 Alpha  occ. eigenvalues --   -9.89625  -9.89367  -9.89295  -9.89050  -9.88848
 Alpha  occ. eigenvalues --   -0.97195  -0.78182  -0.71369  -0.70329  -0.63514
 Alpha  occ. eigenvalues --   -0.61615  -0.61122  -0.53750  -0.51651  -0.48452
 Alpha  occ. eigenvalues --   -0.44193  -0.40156  -0.39351  -0.37864  -0.36828
 Alpha  occ. eigenvalues --   -0.36596  -0.36030  -0.35583  -0.35499  -0.33780
 Alpha  occ. eigenvalues --   -0.33242  -0.32032  -0.30364  -0.29135  -0.28574
 Alpha  occ. eigenvalues --   -0.21852  -0.19208
 Alpha virt. eigenvalues --   -0.03808  -0.02793   0.01760   0.04138   0.05085
 Alpha virt. eigenvalues --    0.06239   0.07739   0.07848   0.08079   0.10114
 Alpha virt. eigenvalues --    0.10665   0.11069   0.11361   0.12586   0.12908

 Mulliken charges:
               1
     1  C   -0.491337
     2  C    0.083796
     3  C   -0.198032
     4  C   -0.027286
     5  C   -0.462420
     6  C    0.099199
     7  O   -0.315264
     8  C    0.031176
     9  C   -0.563487
    10  C   -0.196713
    11  H    0.153821
    12  H    0.155161
    13  H    0.160001
    14  H    0.129177
    15  H    0.152019
    16  H    0.158386
    17  H    0.152058
    18  H    0.325198
    19  H    0.174187
    20  H    0.173141
    21  H    0.173923
    22  H    0.133295
 Sum of Mulliken charges =  -0.00000

 Dipole moment (field-independent basis, Debye):
    X=              0.2576    Y=             -1.9909    Z=              0.0487  Tot=              2.0081
 Quadrupole moment (field-independent basis, Debye-Ang):
   XX=            -55.7532   YY=            -53.3169   ZZ=            -64.4240
   XY=             -5.6240   XZ=             -0.1083   YZ=             -0.0226

 Normal termination of Gaussian 16 at Mon Feb 22 21:03:04 2021.
