 Gaussian 16, Revision C.01,

 -------------------------------------------------------------
 #P BP86/TZVP EmpiricalDispersion=GD3 SCRF=(Solvent=Water) Opt
 -------------------------------------------------------------

 -------------------------------------
 Particle #BSYNRYMUTXBXSQ-UHFFFAOYSA-N
 -------------------------------------
 Symbolic Z-matrix:
 Charge =  0 Multiplicity = 1

 SCF Done:  E(RB-P86) =  -648.921758858     A.U. after   15 cycles
 SCF Done:  E(RB-P86) =  -648.950572492     A.U. after   12 cycles
 SCF Done:  E(RB-P86) =  -648.957394642     A.U. after   13 cycles
 SCF Done:  E(RB-P86) =  -648.959152133     A.U. after   11 cycles
 SCF Done:  E(RB-P86) =  -648.960279111     A.U. after   11 cycles
 SCF Done:  E(RB-P86) =  -648.961437502     A.U. after   14 cycles
 SCF Done:  E(RB-P86) =  -648.962342039     A.U. after   12 cycles
 SCF Done:  E(RB-P86) =  -648.963039551     A.U. after   12 cycles
 SCF Done:  E(RB-P86) =  -648.962946821     A.U. after   12 cycles
 SCF Done:  E(RB-P86) =  -648.963156092     A.U. after   11 cycles
 SCF Done:  E(RB-P86) =  -648.964069716     A.U. after    9 cycles
 SCF Done:  E(RB-P86) =  -648.964074007     A.U. after    9 cycles
 SCF Done:  E(RB-P86) =  -648.964075080     A.U. after    9 cycles
 SCF Done:  E(RB-P86) =  -648.964075310     A.U. after    8 cycles
 SCF Done:  E(RB-P86) =  -648.964075460     A.U. after    7 cycles
 SCF Done:  E(RB-P86) =  -648.964075476     A.U. after    7 cycles
 SCF Done:  E(RB-P86) =  -648.964075512     A.U. after    7 cycles
 SCF Done:  E(RB-P86) =  -648.964075375     A.U. after    7 cycles
 SCF Done:  E(RB-P86) =  -648.964075305     A.U. after    7 cycles
 Optimization completed.
    -- Stationary point found.
 Normal termination of Gaussian 16 at Mon Feb 22 21:08:13 2021.
 Gaussian 16:  ES64L-G16RevC.01  3-Jul-2019

 ---------------------------------------------------------
 # BP86/TZVP SCRF=COSMORS geom=CHECKPOINT guess=CHECKPOINT
 ---------------------------------------------------------

 -------------------------------------------
 COSMO-file for #BSYNRYMUTXBXSQ-UHFFFAOYSA-N
 -------------------------------------------
 Structure from the checkpoint file:  "BSYNRYMUTXBXSQ-UHFFFAOYSA-N.chk"
 Charge =  0 Multiplicity = 1

                         Standard orientation:
 ---------------------------------------------------------------------
 Center     Atomic      Atomic             Coordinates (Angstroms)
 Number     Number       Type             X           Y           Z
 ---------------------------------------------------------------------
      1          6           0       -3.389290    0.813825   -0.232985
      2          6           0       -2.012192    0.717698    0.351935
      3          8           0       -1.723025    0.441122    1.497918
      4          8           0       -1.062127    0.989918   -0.622109
      5          6           0        0.284210    0.784853   -0.308945
      6          6           0        1.088783    1.922534   -0.259755
      7          6           0        2.459569    1.799005   -0.018820
      8          6           0        3.022766    0.532797    0.179651
      9          6           0        2.213238   -0.601642    0.133459
     10          6           0        0.828352   -0.505000   -0.115826
     11          6           0       -0.007550   -1.735081   -0.212361
     12          8           0       -1.153245   -1.795173   -0.640975
     13          8           0        0.656052   -2.842702    0.228598
     14          1           0       -3.565518   -0.096014   -0.827239
     15          1           0       -4.131293    0.873361    0.570112
     16          1           0       -3.475025    1.677105   -0.905537
     17          1           0        0.623126    2.897231   -0.410706
     18          1           0        3.084509    2.693112    0.015584
     19          1           0        4.092158    0.429127    0.368807
     20          1           0        2.651077   -1.588189    0.282348
     21          1           0        0.052415   -3.604998    0.101064
 ---------------------------------------------------------------------

 SCF Done:  E(RB-P86) =  -648.951190905     A.U. after   12 cycles

 The electronic state is 1-A.
 Alpha  occ. eigenvalues --  -18.83581 -18.82396 -18.77796 -18.77445 -10.04353
 Alpha  occ. eigenvalues --  -10.04175  -9.98647  -9.94020  -9.92467  -9.92301
 Alpha  occ. eigenvalues --   -9.91970  -9.91616  -9.90770  -1.03696  -1.02662
 Alpha  occ. eigenvalues --   -0.95874  -0.94388  -0.80512  -0.71979  -0.71624
 Alpha  occ. eigenvalues --   -0.67745  -0.61952  -0.58386  -0.57183  -0.51986
 Alpha  occ. eigenvalues --   -0.48431  -0.45778  -0.45270  -0.44757  -0.44462
 Alpha  occ. eigenvalues --   -0.42733  -0.41677  -0.41036  -0.40448  -0.37589
 Alpha  occ. eigenvalues --   -0.36840  -0.36510  -0.35087  -0.34403  -0.33738
 Alpha  occ. eigenvalues --   -0.32778  -0.30026  -0.29323  -0.26086  -0.25428
 Alpha  occ. eigenvalues --   -0.25221  -0.24207
 Alpha virt. eigenvalues --   -0.10139  -0.06400  -0.04786  -0.00891   0.02614
 Alpha virt. eigenvalues --    0.03735   0.04679   0.07533   0.08344   0.08845
 Alpha virt. eigenvalues --    0.09086   0.10146   0.10266   0.11278   0.12136

 Mulliken charges:
               1
     1  C   -0.447534
     2  C    0.269003
     3  O   -0.328841
     4  O   -0.168667
     5  C    0.216209
     6  C   -0.201405
     7  C   -0.081614
     8  C   -0.149595
     9  C   -0.040745
    10  C   -0.167741
    11  C    0.196885
    12  O   -0.344727
    13  O   -0.279172
    14  H    0.187960
    15  H    0.173637
    16  H    0.176830
    17  H    0.165418
    18  H    0.158170
    19  H    0.159556
    20  H    0.168120
    21  H    0.338253
 Sum of Mulliken charges =   0.00000

 Dipole moment (field-independent basis, Debye):
    X=              2.2705    Y=              0.9046    Z=             -1.5334  Tot=              2.8853
 Quadrupole moment (field-independent basis, Debye-Ang):
   XX=            -59.6529   YY=            -58.6076   ZZ=            -83.2928
   XY=             -0.6650   XZ=              3.3800   YZ=             -2.1167

 Normal termination of Gaussian 16 at Mon Feb 22 21:08:30 2021.
