 Gaussian 16, Revision C.01,

 -------------------------------------------------------------
 #P BP86/TZVP EmpiricalDispersion=GD3 SCRF=(Solvent=Water) Opt
 -------------------------------------------------------------

 -------------------------------------
 Particle #CBXCPBUEXACCNR-UHFFFAOYSA-N
 -------------------------------------
 Symbolic Z-matrix:
 Charge =  1 Multiplicity = 1

 SCF Done:  E(RB-P86) =  -371.613228616     A.U. after   10 cycles
 SCF Done:  E(RB-P86) =  -371.626173637     A.U. after   10 cycles
 SCF Done:  E(RB-P86) =  -371.628340914     A.U. after    9 cycles
 SCF Done:  E(RB-P86) =  -371.628081961     A.U. after    9 cycles
 SCF Done:  E(RB-P86) =  -371.628617268     A.U. after    9 cycles
 SCF Done:  E(RB-P86) =  -371.628669467     A.U. after    8 cycles
 SCF Done:  E(RB-P86) =  -371.628684445     A.U. after    8 cycles
 SCF Done:  E(RB-P86) =  -371.628666922     A.U. after    8 cycles
 SCF Done:  E(RB-P86) =  -371.628687686     A.U. after    8 cycles
 SCF Done:  E(RB-P86) =  -371.628567504     A.U. after    8 cycles
 SCF Done:  E(RB-P86) =  -371.628608050     A.U. after    8 cycles
 SCF Done:  E(RB-P86) =  -371.628684686     A.U. after    8 cycles
 SCF Done:  E(RB-P86) =  -371.628679671     A.U. after    8 cycles
 SCF Done:  E(RB-P86) =  -371.628681326     A.U. after    7 cycles
 SCF Done:  E(RB-P86) =  -371.628701039     A.U. after    7 cycles
 SCF Done:  E(RB-P86) =  -371.628639426     A.U. after    7 cycles
 SCF Done:  E(RB-P86) =  -371.628704135     A.U. after    7 cycles
 SCF Done:  E(RB-P86) =  -371.628627646     A.U. after    7 cycles
 SCF Done:  E(RB-P86) =  -371.628718009     A.U. after    7 cycles
 Optimization completed.
    -- Stationary point found.
 Normal termination of Gaussian 16 at Tue Feb 23 00:17:22 2021.
 Gaussian 16:  ES64L-G16RevC.01  3-Jul-2019

 ---------------------------------------------------------
 # BP86/TZVP SCRF=COSMORS geom=CHECKPOINT guess=CHECKPOINT
 ---------------------------------------------------------

 -------------------------------------------
 COSMO-file for #CBXCPBUEXACCNR-UHFFFAOYSA-N
 -------------------------------------------
 Structure from the checkpoint file:  "CBXCPBUEXACCNR-UHFFFAOYSA-N.chk"
 Charge =  1 Multiplicity = 1

                         Standard orientation:
 ---------------------------------------------------------------------
 Center     Atomic      Atomic             Coordinates (Angstroms)
 Number     Number       Type             X           Y           Z
 ---------------------------------------------------------------------
      1          6           0       -1.904199   -1.747669   -0.058555
      2          6           0       -0.868734   -0.948106   -0.836600
      3          7           0       -0.000155   -0.000012    0.000032
      4          6           0        0.868407    0.836626   -0.948066
      5          6           0        1.904371    0.058613   -1.747019
      6          6           0       -0.868716    0.948085    0.836679
      7          6           0       -1.904123    1.747709    0.058617
      8          6           0        0.868484   -0.836631    0.948080
      9          6           0        1.904594   -0.058623    1.746856
     10          1           0       -1.453942   -2.417004    0.685501
     11          1           0       -2.650467   -1.112787    0.436389
     12          1           0       -2.438554   -2.377957   -0.783460
     13          1           0       -0.169611   -1.622402   -1.344541
     14          1           0       -1.346962   -0.324463   -1.602151
     15          1           0        1.346155    1.602550   -0.324500
     16          1           0        0.169304    1.344037   -1.622778
     17          1           0        2.650824   -0.435526   -1.111736
     18          1           0        1.454531   -0.686102   -2.415910
     19          1           0        2.438409    0.783391   -2.377720
     20          1           0       -0.169577    1.622343    1.344647
     21          1           0       -1.346989    0.324440    1.602202
     22          1           0       -2.438409    2.378076    0.783503
     23          1           0       -2.650455    1.112875   -0.436287
     24          1           0       -1.453812    2.416969   -0.685476
     25          1           0        0.169455   -1.343979    1.622913
     26          1           0        1.346116   -1.602615    0.324500
     27          1           0        2.438726   -0.783395    2.377486
     28          1           0        1.454883    0.686116    2.415805
     29          1           0        2.650953    0.435494    1.111442
 ---------------------------------------------------------------------

 SCF Done:  E(RB-P86) =  -371.603158228     A.U. after    9 cycles

 The electronic state is 1-A.
 Alpha  occ. eigenvalues --  -14.12462  -9.95092  -9.95092  -9.95092  -9.95092
 Alpha  occ. eigenvalues --   -9.89983  -9.89982  -9.89982  -9.89982  -0.92534
 Alpha  occ. eigenvalues --   -0.72266  -0.71605  -0.71604  -0.67051  -0.60232
 Alpha  occ. eigenvalues --   -0.60231  -0.57691  -0.51964  -0.48654  -0.45744
 Alpha  occ. eigenvalues --   -0.45742  -0.43201  -0.41980  -0.39022  -0.39020
 Alpha  occ. eigenvalues --   -0.36559  -0.35926  -0.35925  -0.35656  -0.35063
 Alpha  occ. eigenvalues --   -0.34343  -0.33324  -0.33323  -0.32667  -0.31351
 Alpha  occ. eigenvalues --   -0.31350  -0.30781
 Alpha virt. eigenvalues --    0.01731   0.02713   0.03252   0.03889   0.03890
 Alpha virt. eigenvalues --    0.05973   0.06194   0.06196   0.06803   0.07419
 Alpha virt. eigenvalues --    0.08565   0.08566   0.09303   0.09795   0.10244

 Mulliken charges:
               1
     1  C   -0.435885
     2  C   -0.223409
     3  N   -0.182515
     4  C   -0.223519
     5  C   -0.435829
     6  C   -0.223402
     7  C   -0.435888
     8  C   -0.223483
     9  C   -0.435834
    10  H    0.176243
    11  H    0.170447
    12  H    0.175659
    13  H    0.211730
    14  H    0.220846
    15  H    0.220893
    16  H    0.211755
    17  H    0.170417
    18  H    0.176232
    19  H    0.175669
    20  H    0.211727
    21  H    0.220845
    22  H    0.175659
    23  H    0.170448
    24  H    0.176245
    25  H    0.211751
    26  H    0.220884
    27  H    0.175670
    28  H    0.176228
    29  H    0.170418
 Sum of Mulliken charges =   1.00000

 Dipole moment (field-independent basis, Debye):
    X=             -0.0005    Y=             -0.0000    Z=              0.0001  Tot=              0.0005
 Quadrupole moment (field-independent basis, Debye-Ang):
   XX=            -48.6868   YY=            -50.3522   ZZ=            -50.3535
   XY=             -0.0000   XZ=              0.0001   YZ=              0.0003

 Normal termination of Gaussian 16 at Tue Feb 23 00:17:38 2021.
