 Gaussian 16, Revision C.01,

 -------------------------------------------------------------
 #P BP86/TZVP EmpiricalDispersion=GD3 SCRF=(Solvent=Water) Opt
 -------------------------------------------------------------

 -------------------------------------
 Particle #CKLJMWTZIZZHCS-UWTATZPHSA-N
 -------------------------------------
 Symbolic Z-matrix:
 Charge =  0 Multiplicity = 1

 SCF Done:  E(RB-P86) =  -512.519341100     A.U. after   16 cycles
 SCF Done:  E(RB-P86) =  -512.542256988     A.U. after   12 cycles
 SCF Done:  E(RB-P86) =  -512.548510305     A.U. after   13 cycles
 SCF Done:  E(RB-P86) =  -512.546673618     A.U. after   13 cycles
 SCF Done:  E(RB-P86) =  -512.551144816     A.U. after   11 cycles
 SCF Done:  E(RB-P86) =  -512.552396790     A.U. after   13 cycles
 SCF Done:  E(RB-P86) =  -512.553671173     A.U. after   13 cycles
 SCF Done:  E(RB-P86) =  -512.554761198     A.U. after   11 cycles
 SCF Done:  E(RB-P86) =  -512.555857791     A.U. after   12 cycles
 SCF Done:  E(RB-P86) =  -512.556407676     A.U. after   11 cycles
 SCF Done:  E(RB-P86) =  -512.557309842     A.U. after   11 cycles
 SCF Done:  E(RB-P86) =  -512.557371214     A.U. after   10 cycles
 SCF Done:  E(RB-P86) =  -512.557393632     A.U. after   10 cycles
 SCF Done:  E(RB-P86) =  -512.557407773     A.U. after   10 cycles
 SCF Done:  E(RB-P86) =  -512.557416500     A.U. after   10 cycles
 SCF Done:  E(RB-P86) =  -512.557419485     A.U. after    9 cycles
 SCF Done:  E(RB-P86) =  -512.557420623     A.U. after    9 cycles
 SCF Done:  E(RB-P86) =  -512.557420888     A.U. after    7 cycles
 SCF Done:  E(RB-P86) =  -512.557421059     A.U. after    7 cycles
 Optimization completed.
    -- Stationary point found.
 Normal termination of Gaussian 16 at Mon Feb 22 21:01:38 2021.
 Gaussian 16:  ES64L-G16RevC.01  3-Jul-2019

 ---------------------------------------------------------
 # BP86/TZVP SCRF=COSMORS geom=CHECKPOINT guess=CHECKPOINT
 ---------------------------------------------------------

 -------------------------------------------
 COSMO-file for #CKLJMWTZIZZHCS-UWTATZPHSA-N
 -------------------------------------------
 Structure from the checkpoint file:  "CKLJMWTZIZZHCS-UWTATZPHSA-N.chk"
 Charge =  0 Multiplicity = 1

                         Standard orientation:
 ---------------------------------------------------------------------
 Center     Atomic      Atomic             Coordinates (Angstroms)
 Number     Number       Type             X           Y           Z
 ---------------------------------------------------------------------
      1          7           0        1.886177    1.464419    0.013744
      2          6           0        0.693741    0.590669   -0.298327
      3          6           0       -0.532553    0.947629    0.542541
      4          6           0       -1.773885    0.168090    0.151068
      5          8           0       -2.542894   -0.357182    0.937778
      6          8           0       -1.987051    0.203527   -1.192327
      7          6           0        1.202640   -0.878030   -0.057918
      8          8           0        2.462838   -0.967032    0.123874
      9          8           0        0.338926   -1.779906   -0.080561
     10          1           0        1.805935    1.958387    0.910792
     11          1           0        2.637163    0.689415    0.095161
     12          1           0        2.108444    2.147467   -0.718297
     13          1           0        0.470798    0.705842   -1.366623
     14          1           0       -0.778634    2.015124    0.414278
     15          1           0       -0.348631    0.761446    1.608996
     16          1           0       -2.812533   -0.294014   -1.374820
 ---------------------------------------------------------------------

 SCF Done:  E(RB-P86) =  -512.560511741     A.U. after   12 cycles

 The electronic state is 1-A.
 Alpha  occ. eigenvalues --  -18.82248 -18.77162 -18.74425 -18.73597 -14.08809
 Alpha  occ. eigenvalues --  -10.03957  -9.99984  -9.96465  -9.92721  -1.02526
 Alpha  occ. eigenvalues --   -0.96890  -0.94336  -0.90191  -0.87799  -0.72987
 Alpha  occ. eigenvalues --   -0.62971  -0.56549  -0.52151  -0.50405  -0.47936
 Alpha  occ. eigenvalues --   -0.45210  -0.44346  -0.42929  -0.41964  -0.38818
 Alpha  occ. eigenvalues --   -0.38204  -0.37338  -0.35681  -0.34818  -0.33473
 Alpha  occ. eigenvalues --   -0.29516  -0.25224  -0.24640  -0.23685  -0.21931
 Alpha virt. eigenvalues --   -0.05103  -0.01443   0.01570   0.03077   0.05624
 Alpha virt. eigenvalues --    0.06336   0.07734   0.08844   0.09449   0.10907
 Alpha virt. eigenvalues --    0.12423   0.14878   0.16472   0.17236   0.17510

 Mulliken charges:
               1
     1  N   -0.266913
     2  C   -0.168686
     3  C   -0.304508
     4  C    0.177564
     5  O   -0.353470
     6  O   -0.273608
     7  C    0.183819
     8  O   -0.477959
     9  O   -0.446152
    10  H    0.327592
    11  H    0.295481
    12  H    0.330107
    13  H    0.234834
    14  H    0.222017
    15  H    0.184354
    16  H    0.335527
 Sum of Mulliken charges =  -0.00000

 Dipole moment (field-independent basis, Debye):
    X=              2.4065    Y=             13.5045    Z=             -2.0478  Tot=             13.8693
 Quadrupole moment (field-independent basis, Debye-Ang):
   XX=            -54.4568   YY=            -51.6419   ZZ=            -50.4679
   XY=             17.3568   XZ=              6.7591   YZ=              3.1132

 Normal termination of Gaussian 16 at Mon Feb 22 21:01:48 2021.
