 Gaussian 16, Revision C.01,

 -------------------------------------------------------------
 #P BP86/TZVP EmpiricalDispersion=GD3 SCRF=(Solvent=Water) Opt
 -------------------------------------------------------------

 -------------------------------------
 Particle #CPELXLSAUQHCOX-UHFFFAOYSA-M
 -------------------------------------
 Symbolic Z-matrix:
 Charge = -1 Multiplicity = 1

 SCF Done:  E(RB-P86) =  -2574.61583749     A.U. after    8 cycles
 Optimization completed.
    -- Stationary point found.
 Normal termination of Gaussian 16 at Tue Feb 23 00:11:13 2021.
 Gaussian 16:  ES64L-G16RevC.01  3-Jul-2019

 ---------------------------------------------------------
 # BP86/TZVP SCRF=COSMORS geom=CHECKPOINT guess=CHECKPOINT
 ---------------------------------------------------------

 -------------------------------------------
 COSMO-file for #CPELXLSAUQHCOX-UHFFFAOYSA-M
 -------------------------------------------
 Structure from the checkpoint file:  "CPELXLSAUQHCOX-UHFFFAOYSA-M.chk"
 Charge = -1 Multiplicity = 1

                         Standard orientation:
 ---------------------------------------------------------------------
 Center     Atomic      Atomic             Coordinates (Angstroms)
 Number     Number       Type             X           Y           Z
 ---------------------------------------------------------------------
      1         35           0        0.000000    0.000000    0.000000
 ---------------------------------------------------------------------

 SCF Done:  E(RB-P86) =  -2574.62575830     A.U. after    7 cycles

 The electronic state is 1-A1G.
 Alpha  occ. eigenvalues -- -481.05864 -61.75099 -55.66219 -55.66219 -55.66219
 Alpha  occ. eigenvalues --   -8.32475  -6.19507  -6.19507  -6.19507  -2.39980
 Alpha  occ. eigenvalues --   -2.39980  -2.39980  -2.39980  -2.39980  -0.61224
 Alpha  occ. eigenvalues --   -0.20930  -0.20930  -0.20930
 Alpha virt. eigenvalues --    0.23447   0.23447   0.23447   0.47424   0.54556
 Alpha virt. eigenvalues --    0.54556   0.54556   0.54556   0.54556   1.55633
 Alpha virt. eigenvalues --    1.55633   1.55633   2.76245   2.76245   2.76245

 Mulliken charges:
               1
     1  Br  -1.000000
 Sum of Mulliken charges =  -1.00000

 Dipole moment (field-independent basis, Debye):
    X=              0.0000    Y=              0.0000    Z=              0.0000  Tot=              0.0000
 Quadrupole moment (field-independent basis, Debye-Ang):
   XX=            -22.8573   YY=            -22.8573   ZZ=            -22.8573
   XY=             -0.0000   XZ=             -0.0000   YZ=             -0.0000

 Normal termination of Gaussian 16 at Tue Feb 23 00:11:15 2021.
