 Gaussian 16, Revision C.01,

 -------------------------------------------------------------
 #P BP86/TZVP EmpiricalDispersion=GD3 SCRF=(Solvent=Water) Opt
 -------------------------------------------------------------

 -------------------------------------
 Particle #CZMRCDWAGMRECN-FBXJDJJESA-N
 -------------------------------------
 Symbolic Z-matrix:
 Charge =  0 Multiplicity = 1

 SCF Done:  E(RB-P86) =  -1298.47542709     A.U. after   13 cycles
 SCF Done:  E(RB-P86) =  -1298.49326396     A.U. after   11 cycles
 SCF Done:  E(RB-P86) =  -1298.49526840     A.U. after   11 cycles
 SCF Done:  E(RB-P86) =  -1298.49598821     A.U. after   11 cycles
 SCF Done:  E(RB-P86) =  -1298.49663763     A.U. after   11 cycles
 SCF Done:  E(RB-P86) =  -1298.49719956     A.U. after   11 cycles
 SCF Done:  E(RB-P86) =  -1298.49835658     A.U. after   10 cycles
 SCF Done:  E(RB-P86) =  -1298.49917968     A.U. after   11 cycles
 SCF Done:  E(RB-P86) =  -1298.49939157     A.U. after   11 cycles
 SCF Done:  E(RB-P86) =  -1298.49949687     A.U. after   10 cycles
 SCF Done:  E(RB-P86) =  -1298.49955452     A.U. after    8 cycles
 SCF Done:  E(RB-P86) =  -1298.49955517     A.U. after    8 cycles
 SCF Done:  E(RB-P86) =  -1298.49955476     A.U. after    8 cycles
 SCF Done:  E(RB-P86) =  -1298.49955484     A.U. after    6 cycles
 SCF Done:  E(RB-P86) =  -1298.49955520     A.U. after    8 cycles
 SCF Done:  E(RB-P86) =  -1298.49955488     A.U. after    8 cycles
 SCF Done:  E(RB-P86) =  -1298.49955497     A.U. after    7 cycles
 SCF Done:  E(RB-P86) =  -1298.49955520     A.U. after    8 cycles
 SCF Done:  E(RB-P86) =  -1298.49955488     A.U. after    8 cycles
 Optimization completed.
    -- Stationary point found.
 Normal termination of Gaussian 16 at Mon Feb 22 21:36:43 2021.
 Gaussian 16:  ES64L-G16RevC.01  3-Jul-2019

 ---------------------------------------------------------
 # BP86/TZVP SCRF=COSMORS geom=CHECKPOINT guess=CHECKPOINT
 ---------------------------------------------------------

 -------------------------------------------
 COSMO-file for #CZMRCDWAGMRECN-FBXJDJJESA-N
 -------------------------------------------
 Structure from the checkpoint file:  "CZMRCDWAGMRECN-FBXJDJJESA-N.chk"
 Charge =  0 Multiplicity = 1

                         Standard orientation:
 ---------------------------------------------------------------------
 Center     Atomic      Atomic             Coordinates (Angstroms)
 Number     Number       Type             X           Y           Z
 ---------------------------------------------------------------------
      1          8           0        3.154509    2.072933    1.946975
      2          6           0        2.013177    2.269066    1.090212
      3          6           0        1.661876    0.964599    0.403683
      4          8           0        1.204258    0.038992    1.421493
      5          6           0        0.762034   -1.190443    0.903296
      6          8           0       -0.306641   -1.048645   -0.059446
      7          6           0       -1.637358   -0.693519    0.363202
      8          6           0       -2.166135   -1.557327    1.512203
      9          8           0       -1.578331   -1.168254    2.762181
     10          8           0       -1.707984    0.685763    0.710495
     11          6           0       -2.450432    1.425511   -0.295938
     12          6           0       -1.536796    2.114278   -1.303590
     13          8           0       -0.779319    3.113923   -0.597195
     14          6           0       -3.390976    0.385004   -0.927535
     15          8           0       -4.545000    0.128778   -0.110565
     16          6           0       -2.538009   -0.891965   -0.911515
     17          8           0       -1.783851   -0.979121   -2.118105
     18          6           0        1.882220   -1.921720    0.141320
     19          8           0        1.445363   -3.198733   -0.331287
     20          6           0        2.454612   -1.019113   -0.972683
     21          8           0        3.547111   -1.638924   -1.662575
     22          6           0        2.831761    0.360610   -0.398288
     23          8           0        3.271996    1.270258   -1.418120
     24          1           0        3.396055    2.942320    2.310624
     25          1           0        1.130455    2.605576    1.661494
     26          1           0        2.225088    3.014311    0.303826
     27          1           0        0.823506    1.179805   -0.280878
     28          1           0        0.418387   -1.774164    1.766645
     29          1           0       -1.947795   -2.614120    1.268843
     30          1           0       -3.261446   -1.417232    1.528793
     31          1           0       -1.981759   -1.724670    3.451672
     32          1           0       -3.017736    2.198400    0.247664
     33          1           0       -2.165149    2.573751   -2.089769
     34          1           0       -0.878532    1.368561   -1.782739
     35          1           0       -0.139758    3.497007   -1.223255
     36          1           0       -3.677236    0.640754   -1.961105
     37          1           0       -5.060160    0.953614   -0.051722
     38          1           0       -3.179469   -1.782045   -0.797526
     39          1           0       -0.859265   -1.144948   -1.834154
     40          1           0        2.681836   -2.128295    0.870842
     41          1           0        0.611926   -3.048191   -0.818238
     42          1           0        1.679079   -0.877130   -1.744832
     43          1           0        4.270519   -1.769244   -1.020208
     44          1           0        3.694454    0.243757    0.277282
     45          1           0        2.544266    1.376529   -2.060261
 ---------------------------------------------------------------------

 SCF Done:  E(RB-P86) =  -1298.45583313     A.U. after   11 cycles

 The electronic state is 1-A.
 Alpha  occ. eigenvalues --  -18.80518 -18.79565 -18.79031 -18.78275 -18.78105
 Alpha  occ. eigenvalues --  -18.78025 -18.77991 -18.77928 -18.77833 -18.77600
 Alpha  occ. eigenvalues --  -18.77349 -10.01948 -10.00615  -9.96452  -9.96107
 Alpha  occ. eigenvalues --   -9.95894  -9.95776  -9.95566  -9.95520  -9.95349
 Alpha  occ. eigenvalues --   -9.95252  -9.94533  -9.94381  -1.01565  -0.98142
 Alpha  occ. eigenvalues --   -0.95626  -0.95270  -0.94942  -0.94619  -0.94261
 Alpha  occ. eigenvalues --   -0.93781  -0.93572  -0.93329  -0.92550  -0.72766
 Alpha  occ. eigenvalues --   -0.71793  -0.71532  -0.69991  -0.64448  -0.63441
 Alpha  occ. eigenvalues --   -0.60271  -0.58267  -0.56768  -0.55950  -0.55448
 Alpha  occ. eigenvalues --   -0.52075  -0.50803  -0.49717  -0.48907  -0.48338
 Alpha  occ. eigenvalues --   -0.47411  -0.46272  -0.46154  -0.45609  -0.44948
 Alpha  occ. eigenvalues --   -0.43544  -0.43010  -0.42334  -0.41814  -0.41046
 Alpha  occ. eigenvalues --   -0.40658  -0.40098  -0.38930  -0.38147  -0.37958
 Alpha  occ. eigenvalues --   -0.37061  -0.36791  -0.36215  -0.35585  -0.34562
 Alpha  occ. eigenvalues --   -0.33693  -0.33385  -0.32701  -0.32464  -0.31175
 Alpha  occ. eigenvalues --   -0.30585  -0.30448  -0.30203  -0.29752  -0.28737
 Alpha  occ. eigenvalues --   -0.27080  -0.26942  -0.26077  -0.24984  -0.24765
 Alpha  occ. eigenvalues --   -0.24147  -0.23710  -0.23617  -0.23323  -0.22862
 Alpha  occ. eigenvalues --   -0.22568
 Alpha virt. eigenvalues --   -0.00174   0.00561   0.01350   0.01905   0.02303
 Alpha virt. eigenvalues --    0.02739   0.03660   0.04177   0.04739   0.05344
 Alpha virt. eigenvalues --    0.05988   0.06331   0.06714   0.07556   0.08123

 Mulliken charges:
               1
     1  O   -0.419368
     2  C   -0.162329
     3  C    0.004615
     4  O   -0.212038
     5  C   -0.008118
     6  O   -0.293044
     7  C    0.046977
     8  C   -0.239628
     9  O   -0.400010
    10  O   -0.206046
    11  C    0.088474
    12  C   -0.268495
    13  O   -0.413122
    14  C   -0.190154
    15  O   -0.381906
    16  C   -0.093630
    17  O   -0.382999
    18  C   -0.127487
    19  O   -0.379379
    20  C   -0.084264
    21  O   -0.373802
    22  C   -0.156841
    23  O   -0.385304
    24  H    0.311978
    25  H    0.142936
    26  H    0.143746
    27  H    0.183006
    28  H    0.199709
    29  H    0.174285
    30  H    0.157366
    31  H    0.317354
    32  H    0.197876
    33  H    0.157636
    34  H    0.163279
    35  H    0.317288
    36  H    0.212249
    37  H    0.318028
    38  H    0.210911
    39  H    0.330450
    40  H    0.193687
    41  H    0.307235
    42  H    0.203262
    43  H    0.305317
    44  H    0.181398
    45  H    0.308899
 Sum of Mulliken charges =  -0.00000

 Dipole moment (field-independent basis, Debye):
    X=             -5.2970    Y=              2.8769    Z=             -1.3878  Tot=              6.1855
 Quadrupole moment (field-independent basis, Debye-Ang):
   XX=           -132.8998   YY=           -125.9373   ZZ=           -139.5367
   XY=              4.1255   XZ=              5.3165   YZ=            -17.6121

 Normal termination of Gaussian 16 at Mon Feb 22 21:38:03 2021.
