 Gaussian 16, Revision C.01,

 -------------------------------------------------------------
 #P BP86/TZVP EmpiricalDispersion=GD3 SCRF=(Solvent=Water) Opt
 -------------------------------------------------------------

 -------------------------------------
 Particle #DLFVBJFMPXGRIB-UHFFFAOYSA-N
 -------------------------------------
 Symbolic Z-matrix:
 Charge =  0 Multiplicity = 1

 SCF Done:  E(RB-P86) =  -209.308073926     A.U. after   12 cycles
 SCF Done:  E(RB-P86) =  -209.314609893     A.U. after   11 cycles
 SCF Done:  E(RB-P86) =  -209.314861401     A.U. after   10 cycles
 SCF Done:  E(RB-P86) =  -209.314888913     A.U. after    9 cycles
 SCF Done:  E(RB-P86) =  -209.314890821     A.U. after    8 cycles
 Optimization completed.
    -- Stationary point found.
 Normal termination of Gaussian 16 at Mon Feb 22 20:58:08 2021.
 Gaussian 16:  ES64L-G16RevC.01  3-Jul-2019

 ---------------------------------------------------------
 # BP86/TZVP SCRF=COSMORS geom=CHECKPOINT guess=CHECKPOINT
 ---------------------------------------------------------

 -------------------------------------------
 COSMO-file for #DLFVBJFMPXGRIB-UHFFFAOYSA-N
 -------------------------------------------
 Structure from the checkpoint file:  "DLFVBJFMPXGRIB-UHFFFAOYSA-N.chk"
 Charge =  0 Multiplicity = 1

                         Standard orientation:
 ---------------------------------------------------------------------
 Center     Atomic      Atomic             Coordinates (Angstroms)
 Number     Number       Type             X           Y           Z
 ---------------------------------------------------------------------
      1          6           0        1.380353   -0.281032   -0.000093
      2          6           0       -0.081171    0.142930    0.000294
      3          7           0       -0.982898   -0.877880   -0.000069
      4          8           0       -0.434020    1.332329   -0.000094
      5          1           0        1.610343   -0.885253    0.890436
      6          1           0        2.014508    0.612035   -0.004519
      7          1           0        1.608403   -0.892988   -0.885800
      8          1           0       -0.699081   -1.852400   -0.000112
      9          1           0       -1.976825   -0.666252    0.000026
 ---------------------------------------------------------------------

 SCF Done:  E(RB-P86) =  -209.316748833     A.U. after   10 cycles

 The electronic state is 1-A.
 Alpha  occ. eigenvalues --  -18.74291 -14.01975 -10.00179  -9.89703  -0.95297
 Alpha  occ. eigenvalues --   -0.82688  -0.66735  -0.53509  -0.48184  -0.42579
 Alpha  occ. eigenvalues --   -0.40104  -0.36586  -0.35243  -0.32834  -0.24227
 Alpha  occ. eigenvalues --   -0.22500
 Alpha virt. eigenvalues --   -0.02520   0.02592   0.06653   0.08867   0.09800
 Alpha virt. eigenvalues --    0.11498   0.12349   0.14986   0.18351   0.20305
 Alpha virt. eigenvalues --    0.23305   0.24611   0.27252   0.31604   0.33143

 Mulliken charges:
               1
     1  C   -0.450176
     2  C    0.197966
     3  N   -0.373859
     4  O   -0.446231
     5  H    0.169772
     6  H    0.155350
     7  H    0.169591
     8  H    0.296585
     9  H    0.281003
 Sum of Mulliken charges =  -0.00000

 Dipole moment (field-independent basis, Debye):
    X=              0.3213    Y=             -5.5976    Z=              0.0019  Tot=              5.6068
 Quadrupole moment (field-independent basis, Debye-Ang):
   XX=            -20.1760   YY=            -26.2505   ZZ=            -25.2822
   XY=              3.1026   XZ=              0.0008   YZ=              0.0003

 Normal termination of Gaussian 16 at Mon Feb 22 20:58:11 2021.
