 Gaussian 16, Revision C.01,

 -------------------------------------------------------------
 #P BP86/TZVP EmpiricalDispersion=GD3 SCRF=(Solvent=Water) Opt
 -------------------------------------------------------------

 -------------------------------------
 Particle #FBPFZTCFMRRESA-BXKVDMCESA-N
 -------------------------------------
 Symbolic Z-matrix:
 Charge =  0 Multiplicity = 1

 SCF Done:  E(RB-P86) =  -688.666431165     A.U. after   12 cycles
 SCF Done:  E(RB-P86) =  -688.678122926     A.U. after   11 cycles
 SCF Done:  E(RB-P86) =  -688.681523563     A.U. after   10 cycles
 SCF Done:  E(RB-P86) =  -688.683545127     A.U. after   11 cycles
 SCF Done:  E(RB-P86) =  -688.684029870     A.U. after   11 cycles
 SCF Done:  E(RB-P86) =  -688.684873184     A.U. after   10 cycles
 SCF Done:  E(RB-P86) =  -688.685359582     A.U. after   10 cycles
 SCF Done:  E(RB-P86) =  -688.686076980     A.U. after   11 cycles
 SCF Done:  E(RB-P86) =  -688.686464152     A.U. after   10 cycles
 SCF Done:  E(RB-P86) =  -688.686535751     A.U. after   10 cycles
 SCF Done:  E(RB-P86) =  -688.692646538     A.U. after    9 cycles
 SCF Done:  E(RB-P86) =  -688.692659231     A.U. after    9 cycles
 SCF Done:  E(RB-P86) =  -688.692660326     A.U. after    8 cycles
 SCF Done:  E(RB-P86) =  -688.692660908     A.U. after    8 cycles
 SCF Done:  E(RB-P86) =  -688.692662466     A.U. after    8 cycles
 SCF Done:  E(RB-P86) =  -688.692662603     A.U. after    7 cycles
 SCF Done:  E(RB-P86) =  -688.692662755     A.U. after    8 cycles
 SCF Done:  E(RB-P86) =  -688.692662649     A.U. after    7 cycles
 SCF Done:  E(RB-P86) =  -688.692662498     A.U. after    7 cycles
 Optimization completed.
    -- Stationary point found.
 Normal termination of Gaussian 16 at Mon Feb 22 21:16:02 2021.
 Gaussian 16:  ES64L-G16RevC.01  3-Jul-2019

 ---------------------------------------------------------
 # BP86/TZVP SCRF=COSMORS geom=CHECKPOINT guess=CHECKPOINT
 ---------------------------------------------------------

 -------------------------------------------
 COSMO-file for #FBPFZTCFMRRESA-BXKVDMCESA-N
 -------------------------------------------
 Structure from the checkpoint file:  "FBPFZTCFMRRESA-BXKVDMCESA-N.chk"
 Charge =  0 Multiplicity = 1

                         Standard orientation:
 ---------------------------------------------------------------------
 Center     Atomic      Atomic             Coordinates (Angstroms)
 Number     Number       Type             X           Y           Z
 ---------------------------------------------------------------------
      1          8           0        3.688136   -1.012664    0.037345
      2          6           0        2.252184   -1.154360   -0.022928
      3          6           0        1.727892    0.178178   -0.553756
      4          8           0        2.171573    1.255484    0.305721
      5          6           0        0.197274    0.214903   -0.681773
      6          8           0       -0.228515    1.423488   -1.364219
      7          6           0       -0.557551    0.130019    0.658442
      8          8           0       -0.230686    1.200384    1.556579
      9          6           0       -2.091070    0.110721    0.495577
     10          8           0       -2.623359    1.332961   -0.039906
     11          6           0       -2.581988   -1.058205   -0.367539
     12          8           0       -2.058818   -2.290696    0.164336
     13          1           0        4.031245   -1.664932    0.672508
     14          1           0        1.957145   -1.975835   -0.699327
     15          1           0        1.841317   -1.350765    0.981831
     16          1           0        2.152042    0.332772   -1.565708
     17          1           0        3.080183    1.008158    0.577405
     18          1           0       -0.089459   -0.672919   -1.274286
     19          1           0       -0.002111    1.337689   -2.308122
     20          1           0       -0.286855   -0.847117    1.103424
     21          1           0        0.729100    1.379282    1.415693
     22          1           0       -2.510685    0.003499    1.510391
     23          1           0       -1.969429    1.618772   -0.719265
     24          1           0       -3.686275   -1.048705   -0.356292
     25          1           0       -2.256139   -0.899240   -1.413780
     26          1           0       -2.417182   -3.019861   -0.371462
 ---------------------------------------------------------------------

 SCF Done:  E(RB-P86) =  -688.676122698     A.U. after   10 cycles

 The electronic state is 1-A.
 Alpha  occ. eigenvalues --  -18.78961 -18.78704 -18.78366 -18.77575 -18.76514
 Alpha  occ. eigenvalues --  -18.76411  -9.96374  -9.96031  -9.95367  -9.95086
 Alpha  occ. eigenvalues --   -9.95016  -9.94247  -0.96969  -0.95432  -0.94085
 Alpha  occ. eigenvalues --   -0.93530  -0.93226  -0.92163  -0.72399  -0.68853
 Alpha  occ. eigenvalues --   -0.63841  -0.59842  -0.55845  -0.52070  -0.49836
 Alpha  occ. eigenvalues --   -0.49226  -0.47318  -0.46446  -0.44813  -0.43194
 Alpha  occ. eigenvalues --   -0.42181  -0.41197  -0.39628  -0.38270  -0.37981
 Alpha  occ. eigenvalues --   -0.37089  -0.34539  -0.33969  -0.33336  -0.32325
 Alpha  occ. eigenvalues --   -0.31574  -0.30729  -0.27659  -0.25891  -0.24670
 Alpha  occ. eigenvalues --   -0.24443  -0.23720  -0.23556  -0.22939
 Alpha virt. eigenvalues --    0.00287   0.01430   0.01784   0.04383   0.04619
 Alpha virt. eigenvalues --    0.05372   0.06487   0.07265   0.08555   0.08951
 Alpha virt. eigenvalues --    0.09773   0.10699   0.11216   0.12175   0.13291

 Mulliken charges:
               1
     1  O   -0.432382
     2  C   -0.253604
     3  C    0.040872
     4  O   -0.422596
     5  C   -0.172519
     6  O   -0.414252
     7  C   -0.182209
     8  O   -0.387795
     9  C    0.021855
    10  O   -0.408809
    11  C   -0.244436
    12  O   -0.420572
    13  H    0.328299
    14  H    0.150602
    15  H    0.182555
    16  H    0.177175
    17  H    0.309258
    18  H    0.228844
    19  H    0.329090
    20  H    0.185815
    21  H    0.297916
    22  H    0.161716
    23  H    0.300562
    24  H    0.151425
    25  H    0.156350
    26  H    0.316840
 Sum of Mulliken charges =  -0.00000

 Dipole moment (field-independent basis, Debye):
    X=              4.1359    Y=             -7.3073    Z=             -4.5592  Tot=              9.5546
 Quadrupole moment (field-independent basis, Debye-Ang):
   XX=            -71.1172   YY=            -74.2698   ZZ=            -67.1176
   XY=              4.8779   XZ=             11.4537   YZ=             -3.1379

 Normal termination of Gaussian 16 at Mon Feb 22 21:16:19 2021.
