 Gaussian 16, Revision C.01,

 -------------------------------------------------------------
 #P BP86/TZVP EmpiricalDispersion=GD3 SCRF=(Solvent=Water) Opt
 -------------------------------------------------------------

 -------------------------------------
 Particle #FBUKVWPVBMHYJY-UHFFFAOYSA-N
 -------------------------------------
 Symbolic Z-matrix:
 Charge =  0 Multiplicity = 1

 SCF Done:  E(RB-P86) =  -504.467970702     A.U. after   13 cycles
 SCF Done:  E(RB-P86) =  -504.478183398     A.U. after   10 cycles
 SCF Done:  E(RB-P86) =  -504.479111725     A.U. after   10 cycles
 SCF Done:  E(RB-P86) =  -504.479194880     A.U. after    9 cycles
 SCF Done:  E(RB-P86) =  -504.479171283     A.U. after    9 cycles
 SCF Done:  E(RB-P86) =  -504.479222399     A.U. after    9 cycles
 SCF Done:  E(RB-P86) =  -504.479228855     A.U. after    8 cycles
 SCF Done:  E(RB-P86) =  -504.479252558     A.U. after    9 cycles
 SCF Done:  E(RB-P86) =  -504.479353730     A.U. after   12 cycles
 SCF Done:  E(RB-P86) =  -504.479353166     A.U. after   11 cycles
 SCF Done:  E(RB-P86) =  -504.479848944     A.U. after   10 cycles
 SCF Done:  E(RB-P86) =  -504.479726110     A.U. after   10 cycles
 SCF Done:  E(RB-P86) =  -504.480094493     A.U. after   10 cycles
 SCF Done:  E(RB-P86) =  -504.480142638     A.U. after   10 cycles
 SCF Done:  E(RB-P86) =  -504.480147178     A.U. after    8 cycles
 SCF Done:  E(RB-P86) =  -504.480152005     A.U. after    9 cycles
 SCF Done:  E(RB-P86) =  -504.480153172     A.U. after    8 cycles
 SCF Done:  E(RB-P86) =  -504.480153203     A.U. after    7 cycles
 SCF Done:  E(RB-P86) =  -504.480153086     A.U. after    7 cycles
 Optimization completed.
    -- Stationary point found.
 Normal termination of Gaussian 16 at Mon Feb 22 21:07:11 2021.
 Gaussian 16:  ES64L-G16RevC.01  3-Jul-2019

 ---------------------------------------------------------
 # BP86/TZVP SCRF=COSMORS geom=CHECKPOINT guess=CHECKPOINT
 ---------------------------------------------------------

 -------------------------------------------
 COSMO-file for #FBUKVWPVBMHYJY-UHFFFAOYSA-N
 -------------------------------------------
 Structure from the checkpoint file:  "FBUKVWPVBMHYJY-UHFFFAOYSA-N.chk"
 Charge =  0 Multiplicity = 1

                         Standard orientation:
 ---------------------------------------------------------------------
 Center     Atomic      Atomic             Coordinates (Angstroms)
 Number     Number       Type             X           Y           Z
 ---------------------------------------------------------------------
      1          6           0       -6.045334    0.412763   -0.000008
      2          6           0       -4.785622   -0.462177    0.000071
      3          6           0       -3.486558    0.355198   -0.000038
      4          6           0       -2.218730   -0.508600    0.000032
      5          6           0       -0.921179    0.310045   -0.000059
      6          6           0        0.344871   -0.556243   -0.000008
      7          6           0        1.638141    0.268541   -0.000043
      8          6           0        2.888310   -0.612630   -0.000019
      9          6           0        4.184219    0.165070    0.000021
     10          8           0        4.294988    1.381393    0.000071
     11          8           0        5.265302   -0.669275   -0.000012
     12          1           0       -6.073842    1.063697   -0.888942
     13          1           0       -6.073814    1.063896    0.888780
     14          1           0       -6.963075   -0.195408    0.000074
     15          1           0       -4.794738   -1.126303   -0.882504
     16          1           0       -4.794713   -1.126108    0.882792
     17          1           0       -3.475414    1.020126   -0.883355
     18          1           0       -3.475384    1.020312    0.883140
     19          1           0       -2.230358   -1.173301   -0.883227
     20          1           0       -2.230341   -1.173131    0.883420
     21          1           0       -0.908564    0.974179   -0.883514
     22          1           0       -0.908535    0.974326    0.883287
     23          1           0        0.332841   -1.220196    0.883450
     24          1           0        0.332845   -1.220296   -0.883391
     25          1           0        1.657690    0.930023    0.882002
     26          1           0        1.657678    0.929971   -0.882128
     27          1           0        2.903100   -1.281305    0.877751
     28          1           0        2.903156   -1.281285   -0.877804
     29          1           0        6.070432   -0.107953    0.000001
 ---------------------------------------------------------------------

 SCF Done:  E(RB-P86) =  -504.460000020     A.U. after   10 cycles

 The electronic state is 1-A.
 Alpha  occ. eigenvalues --  -18.81847 -18.76990 -10.03212  -9.91013  -9.89451
 Alpha  occ. eigenvalues --   -9.88889  -9.88720  -9.88620  -9.88528  -9.88484
 Alpha  occ. eigenvalues --   -9.88056  -1.02056  -0.93885  -0.73944  -0.72139
 Alpha  occ. eigenvalues --   -0.69039  -0.64931  -0.60286  -0.55819  -0.52317
 Alpha  occ. eigenvalues --   -0.51570  -0.51025  -0.44970  -0.44088  -0.43391
 Alpha  occ. eigenvalues --   -0.42468  -0.40271  -0.38200  -0.37539  -0.37503
 Alpha  occ. eigenvalues --   -0.36096  -0.34566  -0.34474  -0.32304  -0.31452
 Alpha  occ. eigenvalues --   -0.31447  -0.29478  -0.29379  -0.28903  -0.28293
 Alpha  occ. eigenvalues --   -0.27853  -0.27510  -0.26790  -0.24797
 Alpha virt. eigenvalues --   -0.04544   0.02177   0.02815   0.03645   0.05008
 Alpha virt. eigenvalues --    0.05283   0.05368   0.07496   0.07546   0.07628
 Alpha virt. eigenvalues --    0.10054   0.11045   0.11116   0.11402   0.11937

 Mulliken charges:
               1
     1  C   -0.418538
     2  C   -0.228223
     3  C   -0.260299
     4  C   -0.246819
     5  C   -0.249134
     6  C   -0.267331
     7  C   -0.262097
     8  C   -0.265853
     9  C    0.203022
    10  O   -0.364200
    11  O   -0.286782
    12  H    0.131705
    13  H    0.131690
    14  H    0.144493
    15  H    0.126765
    16  H    0.126765
    17  H    0.123070
    18  H    0.123061
    19  H    0.124649
    20  H    0.124646
    21  H    0.127610
    22  H    0.127601
    23  H    0.131324
    24  H    0.131328
    25  H    0.138501
    26  H    0.138523
    27  H    0.182363
    28  H    0.182366
    29  H    0.329793
 Sum of Mulliken charges =  -0.00000

 Dipole moment (field-independent basis, Debye):
    X=             -0.1894    Y=             -2.3092    Z=             -0.0005  Tot=              2.3170
 Quadrupole moment (field-independent basis, Debye-Ang):
   XX=            -67.0266   YY=            -77.8584   ZZ=            -69.1683
   XY=             -7.0371   XZ=             -0.0018   YZ=             -0.0002

 Normal termination of Gaussian 16 at Mon Feb 22 21:07:29 2021.
