 Gaussian 16, Revision C.01,

 -------------------------------------------------------------
 #P BP86/TZVP EmpiricalDispersion=GD3 SCRF=(Solvent=Water) Opt
 -------------------------------------------------------------

 -------------------------------------
 Particle #FEWJPZIEWOKRBE-JCYAYHJZSA-N
 -------------------------------------
 Symbolic Z-matrix:
 Charge =  0 Multiplicity = 1

 SCF Done:  E(RB-P86) =  -607.640302678     A.U. after   15 cycles
 SCF Done:  E(RB-P86) =  -607.661470340     A.U. after   11 cycles
 SCF Done:  E(RB-P86) =  -607.666745763     A.U. after   12 cycles
 SCF Done:  E(RB-P86) =  -607.667772351     A.U. after   11 cycles
 SCF Done:  E(RB-P86) =  -607.667928894     A.U. after   11 cycles
 SCF Done:  E(RB-P86) =  -607.668351938     A.U. after   11 cycles
 SCF Done:  E(RB-P86) =  -607.668596272     A.U. after   11 cycles
 SCF Done:  E(RB-P86) =  -607.668810858     A.U. after   14 cycles
 SCF Done:  E(RB-P86) =  -607.669185753     A.U. after   10 cycles
 SCF Done:  E(RB-P86) =  -607.669530449     A.U. after   10 cycles
 SCF Done:  E(RB-P86) =  -607.674449612     A.U. after   10 cycles
 SCF Done:  E(RB-P86) =  -607.674451770     A.U. after    9 cycles
 SCF Done:  E(RB-P86) =  -607.674450802     A.U. after   11 cycles
 SCF Done:  E(RB-P86) =  -607.674451298     A.U. after   10 cycles
 SCF Done:  E(RB-P86) =  -607.674457542     A.U. after    9 cycles
 SCF Done:  E(RB-P86) =  -607.674457268     A.U. after    8 cycles
 SCF Done:  E(RB-P86) =  -607.674458259     A.U. after    8 cycles
 SCF Done:  E(RB-P86) =  -607.674458451     A.U. after    8 cycles
 SCF Done:  E(RB-P86) =  -607.674458417     A.U. after    7 cycles
 Optimization completed.
    -- Stationary point found.
 Normal termination of Gaussian 16 at Mon Feb 22 21:12:30 2021.
 Gaussian 16:  ES64L-G16RevC.01  3-Jul-2019

 ---------------------------------------------------------
 # BP86/TZVP SCRF=COSMORS geom=CHECKPOINT guess=CHECKPOINT
 ---------------------------------------------------------

 -------------------------------------------
 COSMO-file for #FEWJPZIEWOKRBE-JCYAYHJZSA-N
 -------------------------------------------
 Structure from the checkpoint file:  "FEWJPZIEWOKRBE-JCYAYHJZSA-N.chk"
 Charge =  0 Multiplicity = 1

                         Standard orientation:
 ---------------------------------------------------------------------
 Center     Atomic      Atomic             Coordinates (Angstroms)
 Number     Number       Type             X           Y           Z
 ---------------------------------------------------------------------
      1          8           0        1.135010   -1.655246   -0.866851
      2          6           0        1.418540   -0.641283   -0.250315
      3          8           0        2.378230   -0.567691    0.695192
      4          6           0        0.666502    0.670991   -0.452118
      5          8           0        1.479181    1.788548   -0.134163
      6          6           0       -0.623100    0.694997    0.423700
      7          8           0       -1.232922    1.948719    0.114532
      8          6           0       -1.543335   -0.480637    0.068976
      9          8           0       -2.275514   -0.518858   -0.901640
     10          8           0       -1.414569   -1.478885    0.976985
     11          1           0        2.784647   -1.458721    0.773332
     12          1           0        0.342001    0.685202   -1.509282
     13          1           0        0.868659    2.554574   -0.116203
     14          1           0       -0.328881    0.634253    1.483838
     15          1           0       -1.772144    2.225701    0.877015
     16          1           0       -1.961246   -2.238110    0.677400
 ---------------------------------------------------------------------

 SCF Done:  E(RB-P86) =  -607.671996210     A.U. after   11 cycles

 The electronic state is 1-A.
 Alpha  occ. eigenvalues --  -18.83326 -18.83177 -18.79975 -18.79111 -18.78170
 Alpha  occ. eigenvalues --  -18.78129 -10.04587 -10.04263  -9.98632  -9.98500
 Alpha  occ. eigenvalues --   -1.03817  -1.03337  -0.97783  -0.95561  -0.95370
 Alpha  occ. eigenvalues --   -0.94814  -0.72765  -0.65093  -0.58925  -0.55220
 Alpha  occ. eigenvalues --   -0.49776  -0.49110  -0.48138  -0.45364  -0.44618
 Alpha  occ. eigenvalues --   -0.44255  -0.42625  -0.40622  -0.38742  -0.37488
 Alpha  occ. eigenvalues --   -0.36594  -0.33650  -0.32811  -0.30639  -0.29984
 Alpha  occ. eigenvalues --   -0.27994  -0.26209  -0.25957  -0.24773
 Alpha virt. eigenvalues --   -0.06667  -0.06503   0.01189   0.02690   0.03569
 Alpha virt. eigenvalues --    0.04986   0.07552   0.09132   0.10953   0.12187
 Alpha virt. eigenvalues --    0.12856   0.13548   0.14869   0.17157   0.19570

 Mulliken charges:
               1
     1  O   -0.332809
     2  C    0.205671
     3  O   -0.247084
     4  C   -0.069110
     5  O   -0.378060
     6  C   -0.086497
     7  O   -0.402118
     8  C    0.153766
     9  O   -0.327457
    10  O   -0.254087
    11  H    0.339002
    12  H    0.202951
    13  H    0.309231
    14  H    0.210316
    15  H    0.337287
    16  H    0.338996
 Sum of Mulliken charges =  -0.00000

 Dipole moment (field-independent basis, Debye):
    X=             -0.5469    Y=              0.2161    Z=              4.7462  Tot=              4.7825
 Quadrupole moment (field-independent basis, Debye-Ang):
   XX=            -57.4542   YY=            -49.6234   ZZ=            -58.9197
   XY=             -4.8177   XZ=             -6.8795   YZ=             -2.0349

 Normal termination of Gaussian 16 at Mon Feb 22 21:12:40 2021.
