 Gaussian 16, Revision C.01,

 -------------------------------------------------------------
 #P BP86/TZVP EmpiricalDispersion=GD3 SCRF=(Solvent=Water) Opt
 -------------------------------------------------------------

 -------------------------------------
 Particle #FFEARJCKVFRZRR-BYPYZUCNSA-N
 -------------------------------------
 Symbolic Z-matrix:
 Charge =  0 Multiplicity = 1

 SCF Done:  E(RB-P86) =  -800.763898471     A.U. after   14 cycles
 SCF Done:  E(RB-P86) =  -800.781351960     A.U. after   12 cycles
 SCF Done:  E(RB-P86) =  -800.783699099     A.U. after   12 cycles
 SCF Done:  E(RB-P86) =  -800.780915125     A.U. after   13 cycles
 SCF Done:  E(RB-P86) =  -800.786140892     A.U. after   11 cycles
 SCF Done:  E(RB-P86) =  -800.787334307     A.U. after   13 cycles
 SCF Done:  E(RB-P86) =  -800.788621499     A.U. after   14 cycles
 SCF Done:  E(RB-P86) =  -800.789240545     A.U. after   11 cycles
 SCF Done:  E(RB-P86) =  -800.789787989     A.U. after   11 cycles
 SCF Done:  E(RB-P86) =  -800.790063811     A.U. after   11 cycles
 SCF Done:  E(RB-P86) =  -800.790178716     A.U. after   11 cycles
 SCF Done:  E(RB-P86) =  -800.790196981     A.U. after   10 cycles
 SCF Done:  E(RB-P86) =  -800.790207918     A.U. after    9 cycles
 SCF Done:  E(RB-P86) =  -800.790211001     A.U. after    9 cycles
 SCF Done:  E(RB-P86) =  -800.790213293     A.U. after    9 cycles
 SCF Done:  E(RB-P86) =  -800.790214584     A.U. after    9 cycles
 SCF Done:  E(RB-P86) =  -800.790215251     A.U. after    8 cycles
 SCF Done:  E(RB-P86) =  -800.790215521     A.U. after    8 cycles
 SCF Done:  E(RB-P86) =  -800.790215436     A.U. after    7 cycles
 Optimization completed.
    -- Stationary point found.
 Normal termination of Gaussian 16 at Mon Feb 22 21:06:29 2021.
 Gaussian 16:  ES64L-G16RevC.01  3-Jul-2019

 ---------------------------------------------------------
 # BP86/TZVP SCRF=COSMORS geom=CHECKPOINT guess=CHECKPOINT
 ---------------------------------------------------------

 -------------------------------------------
 COSMO-file for #FFEARJCKVFRZRR-BYPYZUCNSA-N
 -------------------------------------------
 Structure from the checkpoint file:  "FFEARJCKVFRZRR-BYPYZUCNSA-N.chk"
 Charge =  0 Multiplicity = 1

                         Standard orientation:
 ---------------------------------------------------------------------
 Center     Atomic      Atomic             Coordinates (Angstroms)
 Number     Number       Type             X           Y           Z
 ---------------------------------------------------------------------
      1          6           0       -3.745886    0.759651   -0.219069
      2         16           0       -2.629780   -0.557421    0.409961
      3          6           0       -1.049663    0.030147   -0.352324
      4          6           0        0.101668   -0.874384    0.090940
      5          6           0        1.446457   -0.464508   -0.529497
      6          7           0        2.514365   -1.488833   -0.204837
      7          6           0        2.025563    0.882575    0.043693
      8          8           0        1.385918    1.929784   -0.187649
      9          8           0        3.114095    0.740512    0.702207
     10          1           0       -4.751591    0.540024    0.162187
     11          1           0       -3.767841    0.757940   -1.317518
     12          1           0       -3.427285    1.745131    0.147496
     13          1           0       -1.157483    0.007074   -1.447968
     14          1           0       -0.865094    1.066437   -0.041584
     15          1           0        0.190426   -0.859164    1.190392
     16          1           0       -0.118918   -1.913006   -0.209128
     17          1           0        1.359980   -0.386900   -1.621232
     18          1           0        2.989437   -1.857112   -1.035404
     19          1           0        3.178106   -0.844608    0.370363
     20          1           0        2.177240   -2.278504    0.357958
 ---------------------------------------------------------------------

 SCF Done:  E(RB-P86) =  -800.786536355     A.U. after   12 cycles

 The electronic state is 1-A.
 Alpha  occ. eigenvalues --  -88.12758 -18.74274 -18.73256 -14.08116  -9.99728
 Alpha  occ. eigenvalues --   -9.95770  -9.92468  -9.91677  -9.91539  -7.68028
 Alpha  occ. eigenvalues --   -5.70458  -5.70059  -5.69220  -0.96640  -0.89763
 Alpha  occ. eigenvalues --   -0.87257  -0.74450  -0.69863  -0.63613  -0.57748
 Alpha  occ. eigenvalues --   -0.53543  -0.51296  -0.49037  -0.47185  -0.43733
 Alpha  occ. eigenvalues --   -0.42421  -0.39304  -0.38321  -0.37708  -0.37282
 Alpha  occ. eigenvalues --   -0.36274  -0.35741  -0.33143  -0.31824  -0.31178
 Alpha  occ. eigenvalues --   -0.28264  -0.24436  -0.23642  -0.21434  -0.19461
 Alpha virt. eigenvalues --   -0.01611  -0.00667   0.01561   0.02785   0.03568
 Alpha virt. eigenvalues --    0.05319   0.06586   0.07411   0.08503   0.09169
 Alpha virt. eigenvalues --    0.10202   0.10559   0.11290   0.11890   0.12562

 Mulliken charges:
               1
     1  C   -0.449657
     2  S   -0.095763
     3  C   -0.378279
     4  C   -0.273162
     5  C   -0.162708
     6  N   -0.278283
     7  C    0.179141
     8  O   -0.456609
     9  O   -0.473402
    10  H    0.171383
    11  H    0.172411
    12  H    0.174600
    13  H    0.186056
    14  H    0.182228
    15  H    0.157948
    16  H    0.182065
    17  H    0.219689
    18  H    0.326271
    19  H    0.291758
    20  H    0.324315
 Sum of Mulliken charges =  -0.00000

 Dipole moment (field-independent basis, Debye):
    X=              0.4837    Y=            -10.4672    Z=             -3.8706  Tot=             11.1704
 Quadrupole moment (field-independent basis, Debye-Ang):
   XX=            -61.6950   YY=            -64.5367   ZZ=            -62.0411
   XY=            -32.3446   XZ=             -5.7379   YZ=              0.8280

 Normal termination of Gaussian 16 at Mon Feb 22 21:06:41 2021.
