 Gaussian 16, Revision C.01,

 -------------------------------------------------------------
 #P BP86/TZVP EmpiricalDispersion=GD3 SCRF=(Solvent=Water) Opt
 -------------------------------------------------------------

 -------------------------------------
 Particle #FJKROLUGYXJWQN-UHFFFAOYSA-N
 -------------------------------------
 Symbolic Z-matrix:
 Charge =  0 Multiplicity = 1

 SCF Done:  E(RB-P86) =  -496.229535125     A.U. after   14 cycles
 SCF Done:  E(RB-P86) =  -496.252928724     A.U. after   12 cycles
 SCF Done:  E(RB-P86) =  -496.255660616     A.U. after   12 cycles
 SCF Done:  E(RB-P86) =  -496.255772649     A.U. after   11 cycles
 SCF Done:  E(RB-P86) =  -496.255780076     A.U. after   10 cycles
 SCF Done:  E(RB-P86) =  -496.255784690     A.U. after    9 cycles
 SCF Done:  E(RB-P86) =  -496.255791476     A.U. after    9 cycles
 SCF Done:  E(RB-P86) =  -496.255792113     A.U. after    8 cycles
 SCF Done:  E(RB-P86) =  -496.255792458     A.U. after    8 cycles
 SCF Done:  E(RB-P86) =  -496.255792601     A.U. after    7 cycles
 SCF Done:  E(RB-P86) =  -496.255792682     A.U. after    8 cycles
 Optimization completed.
    -- Stationary point found.
 Normal termination of Gaussian 16 at Mon Feb 22 21:04:09 2021.
 Gaussian 16:  ES64L-G16RevC.01  3-Jul-2019

 ---------------------------------------------------------
 # BP86/TZVP SCRF=COSMORS geom=CHECKPOINT guess=CHECKPOINT
 ---------------------------------------------------------

 -------------------------------------------
 COSMO-file for #FJKROLUGYXJWQN-UHFFFAOYSA-N
 -------------------------------------------
 Structure from the checkpoint file:  "FJKROLUGYXJWQN-UHFFFAOYSA-N.chk"
 Charge =  0 Multiplicity = 1

                         Standard orientation:
 ---------------------------------------------------------------------
 Center     Atomic      Atomic             Coordinates (Angstroms)
 Number     Number       Type             X           Y           Z
 ---------------------------------------------------------------------
      1          8           0        2.810495    1.144510    0.000194
      2          6           0        2.154632    0.106361    0.000011
      3          8           0        2.750909   -1.124830   -0.000198
      4          6           0        0.676688    0.034836    0.000003
      5          6           0       -0.056675    1.238651   -0.000075
      6          6           0       -1.445834    1.227042   -0.000054
      7          6           0       -2.131764   -0.001582    0.000020
      8          8           0       -3.496442    0.048590   -0.000120
      9          6           0       -1.413347   -1.211282    0.000074
     10          6           0       -0.021106   -1.188637    0.000083
     11          1           0        3.719091   -0.971616   -0.000113
     12          1           0        0.483150    2.186992   -0.000116
     13          1           0       -2.018289    2.155822   -0.000092
     14          1           0       -3.861533   -0.856857    0.000708
     15          1           0       -1.948334   -2.163973    0.000084
     16          1           0        0.530654   -2.128856    0.000141
 ---------------------------------------------------------------------

 SCF Done:  E(RB-P86) =  -496.251815987     A.U. after   12 cycles

 The electronic state is 1-A.
 Alpha  occ. eigenvalues --  -18.81849 -18.81451 -18.76650 -10.03311  -9.97978
 Alpha  occ. eigenvalues --   -9.92253  -9.92077  -9.91923  -9.91382  -9.91153
 Alpha  occ. eigenvalues --   -1.01980  -0.98988  -0.93623  -0.79587  -0.70433
 Alpha  occ. eigenvalues --   -0.69554  -0.61128  -0.57163  -0.54971  -0.50689
 Alpha  occ. eigenvalues --   -0.47329  -0.45125  -0.42747  -0.41145  -0.40783
 Alpha  occ. eigenvalues --   -0.39061  -0.38032  -0.37628  -0.35721  -0.34393
 Alpha  occ. eigenvalues --   -0.31464  -0.31039  -0.29081  -0.25019  -0.24840
 Alpha  occ. eigenvalues --   -0.22071
 Alpha virt. eigenvalues --   -0.08723  -0.05730   0.00597   0.02870   0.03035
 Alpha virt. eigenvalues --    0.05356   0.07479   0.09166   0.10198   0.10338
 Alpha virt. eigenvalues --    0.11680   0.12923   0.15868   0.16587   0.16903

 Mulliken charges:
               1
     1  O   -0.375476
     2  C    0.191094
     3  O   -0.288814
     4  C   -0.123842
     5  C   -0.080322
     6  C   -0.241766
     7  C    0.165970
     8  O   -0.299654
     9  C   -0.201278
    10  C   -0.064235
    11  H    0.332426
    12  H    0.152473
    13  H    0.161396
    14  H    0.336463
    15  H    0.172182
    16  H    0.163384
 Sum of Mulliken charges =  -0.00000

 Dipole moment (field-independent basis, Debye):
    X=             -3.0237    Y=             -4.0095    Z=              0.0014  Tot=              5.0219
 Quadrupole moment (field-independent basis, Debye-Ang):
   XX=            -49.2402   YY=            -53.5282   ZZ=            -60.2993
   XY=             -0.2688   XZ=             -0.0077   YZ=             -0.0031

 Normal termination of Gaussian 16 at Mon Feb 22 21:04:20 2021.
