 Gaussian 16, Revision C.01,

 -------------------------------------------------------------
 #P BP86/TZVP EmpiricalDispersion=GD3 SCRF=(Solvent=Water) Opt
 -------------------------------------------------------------

 -------------------------------------
 Particle #FUZZWVXGSFPDMH-UHFFFAOYSA-N
 -------------------------------------
 Symbolic Z-matrix:
 Charge =  0 Multiplicity = 1

 SCF Done:  E(RB-P86) =  -386.487183939     A.U. after   13 cycles
 SCF Done:  E(RB-P86) =  -386.496924293     A.U. after   10 cycles
 SCF Done:  E(RB-P86) =  -386.497669527     A.U. after   10 cycles
 SCF Done:  E(RB-P86) =  -386.497532456     A.U. after   10 cycles
 SCF Done:  E(RB-P86) =  -386.497832786     A.U. after    9 cycles
 SCF Done:  E(RB-P86) =  -386.497839784     A.U. after    8 cycles
 SCF Done:  E(RB-P86) =  -386.497841954     A.U. after    8 cycles
 SCF Done:  E(RB-P86) =  -386.497844800     A.U. after    9 cycles
 SCF Done:  E(RB-P86) =  -386.497850500     A.U. after    9 cycles
 SCF Done:  E(RB-P86) =  -386.497861148     A.U. after    9 cycles
 SCF Done:  E(RB-P86) =  -386.497885564     A.U. after    9 cycles
 SCF Done:  E(RB-P86) =  -386.497886544     A.U. after    8 cycles
 SCF Done:  E(RB-P86) =  -386.497885593     A.U. after    9 cycles
 SCF Done:  E(RB-P86) =  -386.497886023     A.U. after    8 cycles
 SCF Done:  E(RB-P86) =  -386.497887454     A.U. after    8 cycles
 SCF Done:  E(RB-P86) =  -386.497885475     A.U. after    9 cycles
 SCF Done:  E(RB-P86) =  -386.497885202     A.U. after    6 cycles
 SCF Done:  E(RB-P86) =  -386.497887358     A.U. after    9 cycles
 SCF Done:  E(RB-P86) =  -386.497885280     A.U. after    9 cycles
 Optimization completed.
    -- Stationary point found.
 Normal termination of Gaussian 16 at Mon Feb 22 21:06:38 2021.
 Gaussian 16:  ES64L-G16RevC.01  3-Jul-2019

 ---------------------------------------------------------
 # BP86/TZVP SCRF=COSMORS geom=CHECKPOINT guess=CHECKPOINT
 ---------------------------------------------------------

 -------------------------------------------
 COSMO-file for #FUZZWVXGSFPDMH-UHFFFAOYSA-N
 -------------------------------------------
 Structure from the checkpoint file:  "FUZZWVXGSFPDMH-UHFFFAOYSA-N.chk"
 Charge =  0 Multiplicity = 1

                         Standard orientation:
 ---------------------------------------------------------------------
 Center     Atomic      Atomic             Coordinates (Angstroms)
 Number     Number       Type             X           Y           Z
 ---------------------------------------------------------------------
      1          6           0       -4.048846   -0.014406    0.077363
      2          6           0       -2.671337    0.203027   -0.560867
      3          6           0       -1.515098   -0.156531    0.382295
      4          6           0       -0.135782    0.059113   -0.252190
      5          6           0        1.013893   -0.311466    0.712725
      6          6           0        2.356790   -0.123613    0.050918
      7          8           0        3.014374   -1.002207   -0.487990
      8          8           0        2.756207    1.181490    0.072182
      9          1           0       -4.186150   -1.067469    0.371595
     10          1           0       -4.166367    0.602005    0.983233
     11          1           0       -4.861916    0.249325   -0.616200
     12          1           0       -2.568693    1.256960   -0.874007
     13          1           0       -2.588534   -0.401017   -1.481539
     14          1           0       -1.613201   -1.211417    0.696011
     15          1           0       -1.592056    0.448738    1.303542
     16          1           0       -0.027785    1.113000   -0.557790
     17          1           0       -0.050085   -0.549893   -1.168172
     18          1           0        0.931199   -1.365822    1.010927
     19          1           0        0.956202    0.316206    1.614940
     20          1           0        3.605016    1.238371   -0.417544
 ---------------------------------------------------------------------

 SCF Done:  E(RB-P86) =  -386.486934330     A.U. after   10 cycles

 The electronic state is 1-A.
 Alpha  occ. eigenvalues --  -18.81963 -18.76905 -10.03179  -9.90960  -9.90113
 Alpha  occ. eigenvalues --   -9.89035  -9.88952  -9.88152  -1.02073  -0.93838
 Alpha  occ. eigenvalues --   -0.73838  -0.69846  -0.63691  -0.57026  -0.53651
 Alpha  occ. eigenvalues --   -0.51845  -0.45201  -0.43352  -0.42506  -0.41253
 Alpha  occ. eigenvalues --   -0.38775  -0.37723  -0.35827  -0.35277  -0.33826
 Alpha  occ. eigenvalues --   -0.31918  -0.30165  -0.29448  -0.29054  -0.28675
 Alpha  occ. eigenvalues --   -0.27997  -0.24471
 Alpha virt. eigenvalues --   -0.04823   0.02245   0.03139   0.05656   0.05983
 Alpha virt. eigenvalues --    0.05994   0.08224   0.09871   0.10088   0.10432
 Alpha virt. eigenvalues --    0.11393   0.11556   0.12234   0.13914   0.14169

 Mulliken charges:
               1
     1  C   -0.419481
     2  C   -0.229169
     3  C   -0.258786
     4  C   -0.272041
     5  C   -0.265271
     6  C    0.211592
     7  O   -0.366556
     8  O   -0.281397
     9  H    0.132951
    10  H    0.133094
    11  H    0.146424
    12  H    0.130216
    13  H    0.130188
    14  H    0.131295
    15  H    0.130386
    16  H    0.147456
    17  H    0.140439
    18  H    0.164393
    19  H    0.164982
    20  H    0.329287
 Sum of Mulliken charges =  -0.00000

 Dipole moment (field-independent basis, Debye):
    X=             -1.5031    Y=              1.8519    Z=              0.6877  Tot=              2.4823
 Quadrupole moment (field-independent basis, Debye-Ang):
   XX=            -53.0475   YY=            -53.2452   ZZ=            -50.3850
   XY=              8.3995   XZ=              1.1797   YZ=             -2.6200

 Normal termination of Gaussian 16 at Mon Feb 22 21:06:47 2021.
