 Gaussian 16, Revision C.01,

 -------------------------------------------------------------
 #P BP86/TZVP EmpiricalDispersion=GD3 SCRF=(Solvent=Water) Opt
 -------------------------------------------------------------

 -------------------------------------
 Particle #GKCBAIGFKIBETG-UHFFFAOYSA-N
 -------------------------------------
 Symbolic Z-matrix:
 Charge =  0 Multiplicity = 1

 SCF Done:  E(RB-P86) =  -846.300549053     A.U. after   15 cycles
 SCF Done:  E(RB-P86) =  -846.329170347     A.U. after   12 cycles
 SCF Done:  E(RB-P86) =  -846.334745676     A.U. after   11 cycles
 SCF Done:  E(RB-P86) =  -846.335424821     A.U. after   11 cycles
 SCF Done:  E(RB-P86) =  -846.335512893     A.U. after   10 cycles
 SCF Done:  E(RB-P86) =  -846.335541915     A.U. after   10 cycles
 SCF Done:  E(RB-P86) =  -846.335567836     A.U. after    9 cycles
 SCF Done:  E(RB-P86) =  -846.335582631     A.U. after   10 cycles
 SCF Done:  E(RB-P86) =  -846.335585431     A.U. after   10 cycles
 SCF Done:  E(RB-P86) =  -846.335589631     A.U. after   10 cycles
 SCF Done:  E(RB-P86) =  -846.335589771     A.U. after    8 cycles
 SCF Done:  E(RB-P86) =  -846.335589984     A.U. after    7 cycles
 SCF Done:  E(RB-P86) =  -846.335590008     A.U. after    6 cycles
 SCF Done:  E(RB-P86) =  -846.335589991     A.U. after    6 cycles
 Optimization completed.
    -- Stationary point found.
 Normal termination of Gaussian 16 at Mon Feb 22 21:16:24 2021.
 Gaussian 16:  ES64L-G16RevC.01  3-Jul-2019

 ---------------------------------------------------------
 # BP86/TZVP SCRF=COSMORS geom=CHECKPOINT guess=CHECKPOINT
 ---------------------------------------------------------

 -------------------------------------------
 COSMO-file for #GKCBAIGFKIBETG-UHFFFAOYSA-N
 -------------------------------------------
 Structure from the checkpoint file:  "GKCBAIGFKIBETG-UHFFFAOYSA-N.chk"
 Charge =  0 Multiplicity = 1

                         Standard orientation:
 ---------------------------------------------------------------------
 Center     Atomic      Atomic             Coordinates (Angstroms)
 Number     Number       Type             X           Y           Z
 ---------------------------------------------------------------------
      1          6           0       -8.280945   -1.489193    0.093706
      2          6           0       -6.762586   -1.702975    0.085790
      3          6           0       -5.982710   -0.382341    0.041102
      4          6           0       -4.468335   -0.598796    0.033160
      5          7           0       -3.761326    0.677135   -0.011139
      6          6           0       -2.404943    0.819623   -0.027338
      7          6           0       -1.822781    2.119404   -0.056183
      8          6           0       -0.448542    2.278682   -0.075440
      9          6           0        0.419967    1.162695   -0.067131
     10          6           0        1.874458    1.393764   -0.088461
     11          8           0        2.418437    2.498545   -0.110887
     12          8           0        2.591037    0.227088   -0.081967
     13          6           0        4.036877    0.367222   -0.102181
     14          6           0        4.598228   -1.050787   -0.059634
     15          7           0        6.056408   -1.073019   -0.225608
     16          6           0        6.518019   -2.438296   -0.498696
     17          6           0        6.752525   -0.525062    0.944952
     18          6           0       -0.153920   -0.125314   -0.038172
     19          6           0       -1.532139   -0.302822   -0.018304
     20          1           0       -8.592391   -0.897648    0.969487
     21          1           0       -8.608653   -0.947806   -0.808195
     22          1           0       -8.821154   -2.447377    0.125709
     23          1           0       -6.478872   -2.322028   -0.782940
     24          1           0       -6.462539   -2.272005    0.982783
     25          1           0       -6.257276    0.236555    0.913633
     26          1           0       -6.273551    0.186688   -0.859572
     27          1           0       -4.185683   -1.213794   -0.841374
     28          1           0       -4.168453   -1.164209    0.935367
     29          1           0       -4.326136    1.522004   -0.005131
     30          1           0       -2.475112    2.996579   -0.063209
     31          1           0       -0.016517    3.281086   -0.097552
     32          1           0        4.349119    0.975023    0.759930
     33          1           0        4.351243    0.882867   -1.022996
     34          1           0        4.150775   -1.616649   -0.891494
     35          1           0        4.279533   -1.546614    0.886334
     36          1           0        6.032441   -2.823321   -1.407470
     37          1           0        7.605272   -2.433222   -0.665460
     38          1           0        6.300813   -3.141687    0.337264
     39          1           0        6.485291    0.529193    1.099838
     40          1           0        7.838526   -0.572233    0.779175
     41          1           0        6.518428   -1.084977    1.879201
     42          1           0        0.495206   -1.001809   -0.030837
     43          1           0       -1.940719   -1.313310    0.004558
 ---------------------------------------------------------------------

 SCF Done:  E(RB-P86) =  -846.302817819     A.U. after   11 cycles

 The electronic state is 1-A.
 Alpha  occ. eigenvalues --  -18.81601 -18.75795 -14.02538 -14.00361 -10.02114
 Alpha  occ. eigenvalues --   -9.95342  -9.95099  -9.93053  -9.92248  -9.91128
 Alpha  occ. eigenvalues --   -9.91020  -9.91008  -9.90992  -9.90959  -9.90354
 Alpha  occ. eigenvalues --   -9.90223  -9.89601  -9.89279  -9.88260  -1.01275
 Alpha  occ. eigenvalues --   -0.93089  -0.86983  -0.84662  -0.78174  -0.72784
 Alpha  occ. eigenvalues --   -0.70706  -0.68583  -0.68209  -0.64870  -0.63736
 Alpha  occ. eigenvalues --   -0.60668  -0.58240  -0.57110  -0.54296  -0.52472
 Alpha  occ. eigenvalues --   -0.52456  -0.51477  -0.48734  -0.47382  -0.44879
 Alpha  occ. eigenvalues --   -0.44144  -0.43299  -0.42799  -0.41552  -0.41216
 Alpha  occ. eigenvalues --   -0.40834  -0.39907  -0.38867  -0.38681  -0.38093
 Alpha  occ. eigenvalues --   -0.37610  -0.37493  -0.35990  -0.34769  -0.34668
 Alpha  occ. eigenvalues --   -0.34017  -0.33684  -0.32786  -0.32342  -0.31874
 Alpha  occ. eigenvalues --   -0.31374  -0.30748  -0.30066  -0.29976  -0.29494
 Alpha  occ. eigenvalues --   -0.28563  -0.27223  -0.26729  -0.24321  -0.24009
 Alpha  occ. eigenvalues --   -0.18893  -0.18542
 Alpha virt. eigenvalues --   -0.07499  -0.04841   0.01474   0.02286   0.02590
 Alpha virt. eigenvalues --    0.03290   0.04064   0.04518   0.05455   0.06129
 Alpha virt. eigenvalues --    0.06379   0.06505   0.07221   0.07756   0.07987

 Mulliken charges:
               1
     1  C   -0.421369
     2  C   -0.233938
     3  C   -0.299344
     4  C   -0.200859
     5  N   -0.229473
     6  C    0.232241
     7  C   -0.288806
     8  C   -0.111970
     9  C   -0.149887
    10  C    0.219312
    11  O   -0.399364
    12  O   -0.189208
    13  C   -0.141895
    14  C   -0.204282
    15  N   -0.210880
    16  C   -0.334384
    17  C   -0.340541
    18  C   -0.069649
    19  C   -0.284425
    20  H    0.134379
    21  H    0.134306
    22  H    0.147764
    23  H    0.133393
    24  H    0.133377
    25  H    0.143000
    26  H    0.143029
    27  H    0.159921
    28  H    0.159914
    29  H    0.300373
    30  H    0.151985
    31  H    0.142583
    32  H    0.162834
    33  H    0.145880
    34  H    0.157368
    35  H    0.120815
    36  H    0.155618
    37  H    0.154255
    38  H    0.110722
    39  H    0.162778
    40  H    0.155713
    41  H    0.111544
    42  H    0.157522
    43  H    0.179649
 Sum of Mulliken charges =  -0.00000

 Dipole moment (field-independent basis, Debye):
    X=             -6.7303    Y=             -4.0822    Z=              0.9270  Tot=              7.9260
 Quadrupole moment (field-independent basis, Debye-Ang):
   XX=            -81.1864   YY=           -119.5364   ZZ=           -120.6865
   XY=            -16.5456   XZ=              5.1292   YZ=              1.3949

 Normal termination of Gaussian 16 at Mon Feb 22 21:17:06 2021.
