 Gaussian 16, Revision C.01,

 -------------------------------------------------------------
 #P BP86/TZVP EmpiricalDispersion=GD3 SCRF=(Solvent=Water) Opt
 -------------------------------------------------------------

 -------------------------------------
 Particle #HEBKCHPVOIAQTA-SCDXWVJYSA-N
 -------------------------------------
 Symbolic Z-matrix:
 Charge =  0 Multiplicity = 1

 SCF Done:  E(RB-P86) =  -574.094400828     A.U. after   12 cycles
 SCF Done:  E(RB-P86) =  -574.103332119     A.U. after   11 cycles
 SCF Done:  E(RB-P86) =  -574.104863152     A.U. after   10 cycles
 SCF Done:  E(RB-P86) =  -574.105555645     A.U. after   10 cycles
 SCF Done:  E(RB-P86) =  -574.106114456     A.U. after   10 cycles
 SCF Done:  E(RB-P86) =  -574.106331866     A.U. after   10 cycles
 SCF Done:  E(RB-P86) =  -574.106459629     A.U. after    9 cycles
 SCF Done:  E(RB-P86) =  -574.106499029     A.U. after    9 cycles
 SCF Done:  E(RB-P86) =  -574.106523872     A.U. after    9 cycles
 SCF Done:  E(RB-P86) =  -574.106537206     A.U. after    9 cycles
 SCF Done:  E(RB-P86) =  -574.106540389     A.U. after    9 cycles
 SCF Done:  E(RB-P86) =  -574.106542027     A.U. after    8 cycles
 SCF Done:  E(RB-P86) =  -574.106542588     A.U. after    7 cycles
 SCF Done:  E(RB-P86) =  -574.106543072     A.U. after    7 cycles
 SCF Done:  E(RB-P86) =  -574.106543280     A.U. after    7 cycles
 Optimization completed.
    -- Stationary point found.
 Normal termination of Gaussian 16 at Mon Feb 22 21:10:39 2021.
 Gaussian 16:  ES64L-G16RevC.01  3-Jul-2019

 ---------------------------------------------------------
 # BP86/TZVP SCRF=COSMORS geom=CHECKPOINT guess=CHECKPOINT
 ---------------------------------------------------------

 -------------------------------------------
 COSMO-file for #HEBKCHPVOIAQTA-SCDXWVJYSA-N
 -------------------------------------------
 Structure from the checkpoint file:  "HEBKCHPVOIAQTA-SCDXWVJYSA-N.chk"
 Charge =  0 Multiplicity = 1

                         Standard orientation:
 ---------------------------------------------------------------------
 Center     Atomic      Atomic             Coordinates (Angstroms)
 Number     Number       Type             X           Y           Z
 ---------------------------------------------------------------------
      1          8           0       -3.311828   -0.737836   -0.206699
      2          6           0       -2.270308    0.159922   -0.652127
      3          6           0       -0.994738   -0.270249    0.063556
      4          8           0       -1.174058   -0.194997    1.490051
      5          6           0        0.212914    0.576479   -0.349834
      6          8           0       -0.017214    2.001101   -0.182696
      7          6           0        1.474625    0.270748    0.472501
      8          8           0        2.566765    1.082487   -0.002891
      9          6           0        1.889172   -1.190686    0.427922
     10          8           0        1.941431   -1.644040   -0.939937
     11          1           0       -4.167318   -0.291223   -0.327885
     12          1           0       -2.129592    0.094249   -1.747041
     13          1           0       -2.508034    1.201809   -0.378859
     14          1           0       -0.773107   -1.314844   -0.236266
     15          1           0       -2.060610   -0.573818    1.654485
     16          1           0        0.432917    0.353584   -1.407280
     17          1           0       -0.351283    2.355826   -1.024341
     18          1           0        1.255428    0.515112    1.529734
     19          1           0        2.186985    1.978406   -0.104791
     20          1           0        2.876810   -1.282795    0.915579
     21          1           0        1.160329   -1.776870    1.015448
     22          1           0        2.166712   -2.590436   -0.923509
 ---------------------------------------------------------------------

 SCF Done:  E(RB-P86) =  -574.095559876     A.U. after   10 cycles

 The electronic state is 1-A.
 Alpha  occ. eigenvalues --  -18.78202 -18.77979 -18.77396 -18.77351 -18.77107
 Alpha  occ. eigenvalues --   -9.95562  -9.95178  -9.95150  -9.94510  -9.94479
 Alpha  occ. eigenvalues --   -0.96061  -0.94975  -0.93811  -0.92885  -0.92398
 Alpha  occ. eigenvalues --   -0.71831  -0.67579  -0.61900  -0.55437  -0.52035
 Alpha  occ. eigenvalues --   -0.49917  -0.48273  -0.46847  -0.46288  -0.43119
 Alpha  occ. eigenvalues --   -0.41760  -0.40437  -0.38579  -0.37400  -0.36839
 Alpha  occ. eigenvalues --   -0.36137  -0.32690  -0.31593  -0.30979  -0.30680
 Alpha  occ. eigenvalues --   -0.29065  -0.25451  -0.24735  -0.24068  -0.23350
 Alpha  occ. eigenvalues --   -0.23177
 Alpha virt. eigenvalues --    0.00611   0.01454   0.02244   0.04385   0.05432
 Alpha virt. eigenvalues --    0.07202   0.07917   0.08231   0.09471   0.10023
 Alpha virt. eigenvalues --    0.10959   0.11456   0.12424   0.13180   0.13942

 Mulliken charges:
               1
     1  O   -0.435115
     2  C   -0.245714
     3  C   -0.030039
     4  O   -0.402431
     5  C   -0.107998
     6  O   -0.446372
     7  C    0.001776
     8  O   -0.410680
     9  C   -0.214147
    10  O   -0.417898
    11  H    0.325167
    12  H    0.144632
    13  H    0.154252
    14  H    0.171068
    15  H    0.297001
    16  H    0.194878
    17  H    0.332166
    18  H    0.162379
    19  H    0.294750
    20  H    0.151830
    21  H    0.167467
    22  H    0.313027
 Sum of Mulliken charges =  -0.00000

 Dipole moment (field-independent basis, Debye):
    X=             -4.2523    Y=             -0.5692    Z=             -2.1770  Tot=              4.8109
 Quadrupole moment (field-independent basis, Debye-Ang):
   XX=            -56.8261   YY=            -52.7642   ZZ=            -61.6089
   XY=            -10.1775   XZ=              5.7129   YZ=             -6.7710

 Normal termination of Gaussian 16 at Mon Feb 22 21:10:51 2021.
