 Gaussian 16, Revision C.01,

 -------------------------------------------------------------
 #P BP86/TZVP EmpiricalDispersion=GD3 SCRF=(Solvent=Water) Opt
 -------------------------------------------------------------

 -------------------------------------
 Particle #HJZLEGIHUQOJBA-UHFFFAOYSA-N
 -------------------------------------
 Symbolic Z-matrix:
 Charge =  0 Multiplicity = 1

 SCF Done:  E(RB-P86) =  -503.266479654     A.U. after   14 cycles
 SCF Done:  E(RB-P86) =  -503.276495776     A.U. after   11 cycles
 SCF Done:  E(RB-P86) =  -503.277466646     A.U. after   10 cycles
 SCF Done:  E(RB-P86) =  -503.277473875     A.U. after   10 cycles
 SCF Done:  E(RB-P86) =  -503.277585755     A.U. after    9 cycles
 SCF Done:  E(RB-P86) =  -503.277617873     A.U. after    9 cycles
 SCF Done:  E(RB-P86) =  -503.277618599     A.U. after    8 cycles
 SCF Done:  E(RB-P86) =  -503.277619036     A.U. after    7 cycles
 SCF Done:  E(RB-P86) =  -503.277619165     A.U. after    7 cycles
 SCF Done:  E(RB-P86) =  -503.277619508     A.U. after    8 cycles
 SCF Done:  E(RB-P86) =  -503.277474443     A.U. after   13 cycles
 SCF Done:  E(RB-P86) =  -503.278285681     A.U. after   12 cycles
 SCF Done:  E(RB-P86) =  -503.278376114     A.U. after   12 cycles
 SCF Done:  E(RB-P86) =  -503.278434060     A.U. after    9 cycles
 SCF Done:  E(RB-P86) =  -503.278447112     A.U. after    9 cycles
 SCF Done:  E(RB-P86) =  -503.278449285     A.U. after    9 cycles
 SCF Done:  E(RB-P86) =  -503.278449463     A.U. after    7 cycles
 SCF Done:  E(RB-P86) =  -503.278449495     A.U. after    7 cycles
 SCF Done:  E(RB-P86) =  -503.278449491     A.U. after    7 cycles
 Optimization completed.
    -- Stationary point found.
 Normal termination of Gaussian 16 at Mon Feb 22 21:17:44 2021.
 Gaussian 16:  ES64L-G16RevC.01  3-Jul-2019

 ---------------------------------------------------------
 # BP86/TZVP SCRF=COSMORS geom=CHECKPOINT guess=CHECKPOINT
 ---------------------------------------------------------

 -------------------------------------------
 COSMO-file for #HJZLEGIHUQOJBA-UHFFFAOYSA-N
 -------------------------------------------
 Structure from the checkpoint file:  "HJZLEGIHUQOJBA-UHFFFAOYSA-N.chk"
 Charge =  0 Multiplicity = 1

                         Standard orientation:
 ---------------------------------------------------------------------
 Center     Atomic      Atomic             Coordinates (Angstroms)
 Number     Number       Type             X           Y           Z
 ---------------------------------------------------------------------
      1          8           0       -3.499023   -1.072240    0.588296
      2          6           0       -3.181477   -0.031436    0.033566
      3          8           0       -4.103034    0.884195   -0.388115
      4          6           0       -1.773403    0.424092   -0.272105
      5          6           0       -0.703653   -0.604015    0.102142
      6          6           0        0.722714   -0.194257   -0.303027
      7          6           0        1.707038   -1.354138   -0.054524
      8          6           0        3.148472   -0.989696   -0.442353
      9          6           0        3.618234    0.276194    0.291188
     10          6           0        2.652050    1.444233    0.041154
     11          6           0        1.209431    1.074712    0.424469
     12          1           0       -4.990796    0.536328   -0.155464
     13          1           0       -1.725999    0.673131   -1.345915
     14          1           0       -1.624859    1.379316    0.258007
     15          1           0       -0.734856   -0.786925    1.190103
     16          1           0       -0.951882   -1.564947   -0.378483
     17          1           0        0.723417    0.019072   -1.390839
     18          1           0        1.374970   -2.248646   -0.608653
     19          1           0        1.675149   -1.618015    1.019746
     20          1           0        3.824703   -1.833672   -0.227872
     21          1           0        3.196504   -0.814680   -1.532956
     22          1           0        4.639625    0.547551   -0.023088
     23          1           0        3.663479    0.069632    1.376471
     24          1           0        2.974538    2.338209    0.600031
     25          1           0        2.681410    1.714019   -1.030649
     26          1           0        1.153511    0.895399    1.515180
     27          1           0        0.541102    1.924457    0.209864
 ---------------------------------------------------------------------

 SCF Done:  E(RB-P86) =  -503.255559932     A.U. after   10 cycles

 The electronic state is 1-A.
 Alpha  occ. eigenvalues --  -18.81835 -18.76978 -10.03207  -9.90962  -9.89467
 Alpha  occ. eigenvalues --   -9.89314  -9.88555  -9.88536  -9.88484  -9.88474
 Alpha  occ. eigenvalues --   -9.88471  -1.02044  -0.93870  -0.75906  -0.71977
 Alpha  occ. eigenvalues --   -0.67051  -0.66469  -0.60208  -0.54738  -0.53787
 Alpha  occ. eigenvalues --   -0.50953  -0.49171  -0.45183  -0.43623  -0.43470
 Alpha  occ. eigenvalues --   -0.41664  -0.39439  -0.38526  -0.38275  -0.36702
 Alpha  occ. eigenvalues --   -0.35921  -0.34679  -0.32922  -0.31975  -0.31498
 Alpha  occ. eigenvalues --   -0.30199  -0.29421  -0.29216  -0.28399  -0.27103
 Alpha  occ. eigenvalues --   -0.25791  -0.25323  -0.24807
 Alpha virt. eigenvalues --   -0.04533   0.02238   0.03159   0.03852   0.04460
 Alpha virt. eigenvalues --    0.05262   0.07272   0.07700   0.08275   0.09003
 Alpha virt. eigenvalues --    0.10061   0.10330   0.10584   0.10656   0.11601

 Mulliken charges:
               1
     1  O   -0.363040
     2  C    0.194398
     3  O   -0.286840
     4  C   -0.275046
     5  C   -0.270176
     6  C   -0.141386
     7  C   -0.275913
     8  C   -0.251574
     9  C   -0.268277
    10  C   -0.256262
    11  C   -0.307664
    12  H    0.329812
    13  H    0.183511
    14  H    0.191311
    15  H    0.138756
    16  H    0.147272
    17  H    0.142706
    18  H    0.142212
    19  H    0.128088
    20  H    0.145203
    21  H    0.126860
    22  H    0.145839
    23  H    0.124701
    24  H    0.145527
    25  H    0.126590
    26  H    0.128066
    27  H    0.155325
 Sum of Mulliken charges =  -0.00000

 Dipole moment (field-independent basis, Debye):
    X=              0.6808    Y=              1.9923    Z=             -1.0853  Tot=              2.3687
 Quadrupole moment (field-independent basis, Debye-Ang):
   XX=            -66.0197   YY=            -73.7764   ZZ=            -69.5075
   XY=             -6.5018   XZ=              3.0931   YZ=              2.7257

 Normal termination of Gaussian 16 at Mon Feb 22 21:18:01 2021.
