 Gaussian 16, Revision C.01,

 -------------------------------------------------------------
 #P BP86/TZVP EmpiricalDispersion=GD3 SCRF=(Solvent=Water) Opt
 -------------------------------------------------------------

 -------------------------------------
 Particle #HLZKNKRTKFSKGZ-UHFFFAOYSA-N
 -------------------------------------
 Symbolic Z-matrix:
 Charge =  0 Multiplicity = 1

 SCF Done:  E(RB-P86) =  -627.025103355     A.U. after   11 cycles
 SCF Done:  E(RB-P86) =  -627.030166377     A.U. after    9 cycles
 SCF Done:  E(RB-P86) =  -627.030766443     A.U. after    8 cycles
 SCF Done:  E(RB-P86) =  -627.030786803     A.U. after    7 cycles
 SCF Done:  E(RB-P86) =  -627.030787274     A.U. after    6 cycles
 Optimization completed.
    -- Stationary point found.
 Normal termination of Gaussian 16 at Mon Feb 22 21:11:08 2021.
 Gaussian 16:  ES64L-G16RevC.01  3-Jul-2019

 ---------------------------------------------------------
 # BP86/TZVP SCRF=COSMORS geom=CHECKPOINT guess=CHECKPOINT
 ---------------------------------------------------------

 -------------------------------------------
 COSMO-file for #HLZKNKRTKFSKGZ-UHFFFAOYSA-N
 -------------------------------------------
 Structure from the checkpoint file:  "HLZKNKRTKFSKGZ-UHFFFAOYSA-N.chk"
 Charge =  0 Multiplicity = 1

                         Standard orientation:
 ---------------------------------------------------------------------
 Center     Atomic      Atomic             Coordinates (Angstroms)
 Number     Number       Type             X           Y           Z
 ---------------------------------------------------------------------
      1          6           0       -8.961188   -0.389536   -0.000000
      2          6           0       -7.685660    0.462329    0.000000
      3          6           0       -6.401676   -0.378459   -0.000000
      4          6           0       -5.117619    0.461198    0.000000
      5          6           0       -3.835047   -0.380905   -0.000000
      6          6           0       -2.550707    0.458472    0.000000
      7          6           0       -1.268547   -0.384198   -0.000000
      8          6           0        0.016251    0.454461    0.000000
      9          6           0        1.297682   -0.389291   -0.000000
     10          6           0        2.582968    0.448592   -0.000000
     11          6           0        3.862761   -0.397328   -0.000000
     12          6           0        5.147881    0.441016   -0.000000
     13          6           0        6.422962   -0.412911    0.000000
     14          6           0        7.691769    0.428242   -0.000000
     15          8           0        8.830145   -0.463878    0.000001
     16          1           0       -9.867814    0.235088    0.000000
     17          1           0       -9.001440   -1.039973   -0.888855
     18          1           0       -9.001440   -1.039974    0.888855
     19          1           0       -7.682722    1.126475    0.882624
     20          1           0       -7.682722    1.126476   -0.882623
     21          1           0       -6.402797   -1.043744   -0.883193
     22          1           0       -6.402797   -1.043744    0.883192
     23          1           0       -5.116928    1.126159   -0.883260
     24          1           0       -5.116928    1.126158    0.883261
     25          1           0       -3.835732   -1.045891    0.883214
     26          1           0       -3.835732   -1.045891   -0.883214
     27          1           0       -2.549847    1.123419    0.883245
     28          1           0       -2.549847    1.123419   -0.883245
     29          1           0       -1.269570   -1.049180    0.883222
     30          1           0       -1.269570   -1.049179   -0.883222
     31          1           0        0.017574    1.119367    0.883260
     32          1           0        0.017574    1.119367   -0.883260
     33          1           0        1.296163   -1.054199   -0.883235
     34          1           0        1.296163   -1.054199    0.883235
     35          1           0        2.584977    1.113277    0.883348
     36          1           0        2.584977    1.113277   -0.883348
     37          1           0        3.861021   -1.061656    0.883373
     38          1           0        3.861021   -1.061655   -0.883374
     39          1           0        5.148787    1.104641   -0.883612
     40          1           0        5.148787    1.104641    0.883612
     41          1           0        6.431500   -1.069839    0.886998
     42          1           0        6.431500   -1.069840   -0.886998
     43          1           0        7.709790    1.081518    0.893914
     44          1           0        7.709791    1.081517   -0.893915
     45          1           0        9.634128    0.085106   -0.000002
 ---------------------------------------------------------------------

 SCF Done:  E(RB-P86) =  -626.993640437     A.U. after    9 cycles

 The electronic state is 1-A.
 Alpha  occ. eigenvalues --  -18.76875  -9.93680  -9.88919  -9.88898  -9.88710
 Alpha  occ. eigenvalues --   -9.88628  -9.88515  -9.88485  -9.88473  -9.88471
 Alpha  occ. eigenvalues --   -9.88466  -9.88462  -9.88456  -9.88454  -9.88052
 Alpha  occ. eigenvalues --   -0.93024  -0.73787  -0.73036  -0.71691  -0.69805
 Alpha  occ. eigenvalues --   -0.67429  -0.64628  -0.61496  -0.58184  -0.54970
 Alpha  occ. eigenvalues --   -0.52477  -0.51704  -0.51464  -0.50855  -0.50759
 Alpha  occ. eigenvalues --   -0.45585  -0.43574  -0.42986  -0.41898  -0.40379
 Alpha  occ. eigenvalues --   -0.38694  -0.38505  -0.38150  -0.37570  -0.36379
 Alpha  occ. eigenvalues --   -0.35729  -0.35645  -0.34150  -0.33593  -0.32394
 Alpha  occ. eigenvalues --   -0.32004  -0.31443  -0.30272  -0.30152  -0.29335
 Alpha  occ. eigenvalues --   -0.28868  -0.28770  -0.28271  -0.28023  -0.27933
 Alpha  occ. eigenvalues --   -0.27866  -0.27562  -0.27413  -0.27386  -0.25378
 Alpha  occ. eigenvalues --   -0.23172
 Alpha virt. eigenvalues --    0.02203   0.02565   0.02786   0.03416   0.04285
 Alpha virt. eigenvalues --    0.04798   0.04985   0.05454   0.05693   0.05878
 Alpha virt. eigenvalues --    0.06946   0.07213   0.07663   0.08958   0.09333

 Mulliken charges:
               1
     1  C   -0.418556
     2  C   -0.227847
     3  C   -0.259881
     4  C   -0.243452
     5  C   -0.253138
     6  C   -0.251212
     7  C   -0.252631
     8  C   -0.251496
     9  C   -0.253241
    10  C   -0.249707
    11  C   -0.255591
    12  C   -0.274875
    13  C   -0.197505
    14  C   -0.173021
    15  O   -0.437206
    16  H    0.144442
    17  H    0.131671
    18  H    0.131680
    19  H    0.126647
    20  H    0.126648
    21  H    0.122684
    22  H    0.122687
    23  H    0.123649
    24  H    0.123647
    25  H    0.125215
    26  H    0.125214
    27  H    0.125580
    28  H    0.125581
    29  H    0.125722
    30  H    0.125722
    31  H    0.125799
    32  H    0.125799
    33  H    0.126015
    34  H    0.126014
    35  H    0.126385
    36  H    0.126386
    37  H    0.127605
    38  H    0.127605
    39  H    0.129400
    40  H    0.129393
    41  H    0.127016
    42  H    0.127024
    43  H    0.128460
    44  H    0.128458
    45  H    0.311215
 Sum of Mulliken charges =  -0.00000

 Dipole moment (field-independent basis, Debye):
    X=             -0.0330    Y=              2.2353    Z=             -0.0001  Tot=              2.2355
 Quadrupole moment (field-independent basis, Debye-Ang):
   XX=           -100.9657   YY=           -104.1132   ZZ=            -99.3922
   XY=             18.7839   XZ=              0.0010   YZ=              0.0000

 Normal termination of Gaussian 16 at Mon Feb 22 21:11:39 2021.
