 Gaussian 16, Revision C.01,

 -------------------------------------------------------------
 #P BP86/TZVP EmpiricalDispersion=GD3 SCRF=(Solvent=Water) Opt
 -------------------------------------------------------------

 -------------------------------------
 Particle #HWCKGOZZJDHMNC-UHFFFAOYSA-M
 -------------------------------------
 Symbolic Z-matrix:
 Charge =  0 Multiplicity = 1

 SCF Done:  E(RB-P86) =  -2946.23371019     A.U. after   12 cycles
 SCF Done:  E(RB-P86) =  -2946.24521869     A.U. after   10 cycles
 SCF Done:  E(RB-P86) =  -2946.24803416     A.U. after   10 cycles
 SCF Done:  E(RB-P86) =  -2946.24877316     A.U. after    9 cycles
 SCF Done:  E(RB-P86) =  -2946.24915307     A.U. after    9 cycles
 SCF Done:  E(RB-P86) =  -2946.24938770     A.U. after    9 cycles
 SCF Done:  E(RB-P86) =  -2946.24953798     A.U. after    9 cycles
 SCF Done:  E(RB-P86) =  -2946.24962828     A.U. after    8 cycles
 SCF Done:  E(RB-P86) =  -2946.24971370     A.U. after    9 cycles
 SCF Done:  E(RB-P86) =  -2946.24974424     A.U. after    8 cycles
 SCF Done:  E(RB-P86) =  -2946.24979361     A.U. after    6 cycles
 SCF Done:  E(RB-P86) =  -2946.24979491     A.U. after    7 cycles
 SCF Done:  E(RB-P86) =  -2946.24979570     A.U. after    6 cycles
 SCF Done:  E(RB-P86) =  -2946.24979587     A.U. after    5 cycles
 SCF Done:  E(RB-P86) =  -2946.24979599     A.U. after    6 cycles
 SCF Done:  E(RB-P86) =  -2946.24979620     A.U. after    7 cycles
 SCF Done:  E(RB-P86) =  -2946.24979635     A.U. after    6 cycles
 SCF Done:  E(RB-P86) =  -2946.24979651     A.U. after    5 cycles
 SCF Done:  E(RB-P86) =  -2946.24979660     A.U. after    6 cycles
 Optimization completed.
    -- Stationary point found.
 Normal termination of Gaussian 16 at Sat Aug 21 09:44:50 2021.
 Gaussian 16:  ES64L-G16RevC.01  3-Jul-2019

 ---------------------------------------------------------
 # BP86/TZVP SCRF=COSMORS geom=CHECKPOINT guess=CHECKPOINT
 ---------------------------------------------------------

 -------------------------------------------
 COSMO-file for #HWCKGOZZJDHMNC-UHFFFAOYSA-M
 -------------------------------------------
 Structure from the checkpoint file:  "HWCKGOZZJDHMNC-UHFFFAOYSA-M.chk"
 Charge =  0 Multiplicity = 1

                         Standard orientation:
 ---------------------------------------------------------------------
 Center     Atomic      Atomic             Coordinates (Angstroms)
 Number     Number       Type             X           Y           Z
 ---------------------------------------------------------------------
      1          6           0        3.539817   -0.882227   -0.283689
      2          6           0        2.715634    0.379951   -0.080581
      3          7           0        1.199573    0.199331   -0.013212
      4          6           0        0.786489   -0.751307    1.113679
      5          6           0        1.228769   -0.344972    2.512526
      6          6           0        0.624364   -0.312985   -1.351256
      7          6           0        0.569198   -1.822023   -1.557651
      8          6           0        0.565319    1.573333    0.272423
      9          6           0        0.708780    2.612220   -0.831858
     10         35           0       -2.859210   -0.137207    0.054194
     11          1           0        3.378284   -1.332030   -1.270655
     12          1           0        3.362088   -1.638885    0.491963
     13          1           0        4.598836   -0.593181   -0.223662
     14          1           0        2.896063    1.083442   -0.901768
     15          1           0        2.998217    0.883181    0.852666
     16          1           0       -0.310330   -0.812558    1.041362
     17          1           0        1.201817   -1.731828    0.860106
     18          1           0        0.774910    0.594963    2.850977
     19          1           0        2.320566   -0.272318    2.610519
     20          1           0        0.892652   -1.135805    3.198450
     21          1           0       -0.403264    0.074632   -1.384100
     22          1           0        1.219525    0.174574   -2.132997
     23          1           0        1.532522   -2.329431   -1.433192
     24          1           0        0.242660   -1.982917   -2.595800
     25          1           0       -0.176438   -2.295137   -0.905752
     26          1           0        1.032494    1.936767    1.195009
     27          1           0       -0.495950    1.357550    0.468103
     28          1           0        0.207277    2.317305   -1.762278
     29          1           0        0.219528    3.529214   -0.472681
     30          1           0        1.753653    2.867467   -1.052114
 ---------------------------------------------------------------------

 SCF Done:  E(RB-P86) =  -2946.22009300     A.U. after   11 cycles

 The electronic state is 1-A.
 Alpha  occ. eigenvalues -- -481.06198 -61.75412 -55.66534 -55.66533 -55.66532
 Alpha  occ. eigenvalues --  -14.11998  -9.94761  -9.94561  -9.94542  -9.94434
 Alpha  occ. eigenvalues --   -9.89822  -9.89767  -9.89750  -9.89650  -8.32777
 Alpha  occ. eigenvalues --   -6.19809  -6.19808  -6.19802  -2.40283  -2.40283
 Alpha  occ. eigenvalues --   -2.40279  -2.40278  -2.40276  -0.91966  -0.71638
 Alpha  occ. eigenvalues --   -0.71380  -0.71349  -0.66789  -0.61628  -0.59941
 Alpha  occ. eigenvalues --   -0.58978  -0.58303  -0.51699  -0.46741  -0.46717
 Alpha  occ. eigenvalues --   -0.45059  -0.42738  -0.41353  -0.39343  -0.38653
 Alpha  occ. eigenvalues --   -0.36690  -0.35771  -0.35626  -0.35105  -0.34571
 Alpha  occ. eigenvalues --   -0.34216  -0.33506  -0.32675  -0.31821  -0.31478
 Alpha  occ. eigenvalues --   -0.30945  -0.30205  -0.21139  -0.21131  -0.20856
 Alpha virt. eigenvalues --    0.01952   0.02847   0.03527   0.03710   0.04969
 Alpha virt. eigenvalues --    0.05271   0.06258   0.06861   0.07240   0.07859
 Alpha virt. eigenvalues --    0.08685   0.09025   0.09321   0.09398   0.10259

 Mulliken charges:
               1
     1  C   -0.460831
     2  C   -0.204452
     3  N   -0.150090
     4  C   -0.209251
     5  C   -0.456901
     6  C   -0.200618
     7  C   -0.449893
     8  C   -0.190315
     9  C   -0.441927
    10  Br  -0.922910
    11  H    0.173936
    12  H    0.176614
    13  H    0.173957
    14  H    0.205622
    15  H    0.209841
    16  H    0.182358
    17  H    0.226325
    18  H    0.176245
    19  H    0.170338
    20  H    0.173743
    21  H    0.190603
    22  H    0.208815
    23  H    0.177824
    24  H    0.173347
    25  H    0.165072
    26  H    0.205427
    27  H    0.179587
    28  H    0.172374
    29  H    0.174141
    30  H    0.171019
 Sum of Mulliken charges =  -0.00000

 Dipole moment (field-independent basis, Debye):
    X=             18.8044    Y=              1.4694    Z=             -0.3313  Tot=             18.8646
 Quadrupole moment (field-independent basis, Debye-Ang):
   XX=           -104.7174   YY=            -73.2905   ZZ=            -73.3612
   XY=             -1.2858   XZ=              0.8010   YZ=              0.0074

 Normal termination of Gaussian 16 at Sat Aug 21 09:45:20 2021.
