 Gaussian 16, Revision C.01,

 -------------------------------------------------------------
 #P BP86/TZVP EmpiricalDispersion=GD3 SCRF=(Solvent=Water) Opt
 -------------------------------------------------------------

 -------------------------------------
 Particle #ISWSIDIOOBJBQZ-UHFFFAOYSA-N
 -------------------------------------
 Symbolic Z-matrix:
 Charge =  0 Multiplicity = 1

 SCF Done:  E(RB-P86) =  -307.568430689     A.U. after   13 cycles
 SCF Done:  E(RB-P86) =  -307.586837918     A.U. after   12 cycles
 SCF Done:  E(RB-P86) =  -307.587116666     A.U. after   10 cycles
 SCF Done:  E(RB-P86) =  -307.587120639     A.U. after    8 cycles
 SCF Done:  E(RB-P86) =  -307.587121509     A.U. after    7 cycles
 Optimization completed.
    -- Stationary point found.
 Normal termination of Gaussian 16 at Mon Feb 22 21:11:58 2021.
 Gaussian 16:  ES64L-G16RevC.01  3-Jul-2019

 ---------------------------------------------------------
 # BP86/TZVP SCRF=COSMORS geom=CHECKPOINT guess=CHECKPOINT
 ---------------------------------------------------------

 -------------------------------------------
 COSMO-file for #ISWSIDIOOBJBQZ-UHFFFAOYSA-N
 -------------------------------------------
 Structure from the checkpoint file:  "ISWSIDIOOBJBQZ-UHFFFAOYSA-N.chk"
 Charge =  0 Multiplicity = 1

                         Standard orientation:
 ---------------------------------------------------------------------
 Center     Atomic      Atomic             Coordinates (Angstroms)
 Number     Number       Type             X           Y           Z
 ---------------------------------------------------------------------
      1          8           0        2.317272   -0.114290    0.000000
      2          6           0        0.943454   -0.023230    0.000000
      3          6           0        0.220941   -1.226887    0.000000
      4          6           0       -1.176506   -1.194634    0.000000
      5          6           0       -1.864307    0.027175   -0.000000
      6          6           0       -1.135607    1.223126    0.000000
      7          6           0        0.263989    1.205886    0.000000
      8          1           0        2.700438    0.782769   -0.000000
      9          1           0        0.764551   -2.173593    0.000000
     10          1           0       -1.731750   -2.135296    0.000000
     11          1           0       -2.955485    0.046442   -0.000000
     12          1           0       -1.656520    2.183178   -0.000000
     13          1           0        0.828812    2.142209    0.000000
 ---------------------------------------------------------------------

 SCF Done:  E(RB-P86) =  -307.584264846     A.U. after   10 cycles

 The electronic state is 1-A.
 Alpha  occ. eigenvalues --  -18.80330  -9.96551  -9.90671  -9.90629  -9.90434
 Alpha  occ. eigenvalues --   -9.90203  -9.89867  -0.97685  -0.78013  -0.68375
 Alpha  occ. eigenvalues --   -0.67386  -0.56837  -0.54766  -0.49517  -0.44975
 Alpha  occ. eigenvalues --   -0.42063  -0.39334  -0.37933  -0.37095  -0.34872
 Alpha  occ. eigenvalues --   -0.32186  -0.30563  -0.30163  -0.23785  -0.20771
 Alpha virt. eigenvalues --   -0.04938  -0.03503   0.03287   0.04114   0.07645
 Alpha virt. eigenvalues --    0.08705   0.09696   0.10415   0.11315   0.12342
 Alpha virt. eigenvalues --    0.15645   0.17846   0.18098   0.20039   0.20547

 Mulliken charges:
               1
     1  O   -0.326987
     2  C    0.124584
     3  C   -0.232988
     4  C   -0.134500
     5  C   -0.184723
     6  C   -0.139414
     7  C   -0.209765
     8  H    0.329168
     9  H    0.156474
    10  H    0.149477
    11  H    0.151084
    12  H    0.151616
    13  H    0.165972
 Sum of Mulliken charges =  -0.00000

 Dipole moment (field-independent basis, Debye):
    X=              0.1929    Y=              1.9517    Z=              0.0003  Tot=              1.9612
 Quadrupole moment (field-independent basis, Debye-Ang):
   XX=            -36.5415   YY=            -34.7010   ZZ=            -45.6705
   XY=              5.4673   XZ=              0.0004   YZ=              0.0002

 Normal termination of Gaussian 16 at Mon Feb 22 21:12:05 2021.
