 Gaussian 16, Revision C.01,

 -------------------------------------------------------------
 #P BP86/TZVP EmpiricalDispersion=GD3 SCRF=(Solvent=Water) Opt
 -------------------------------------------------------------

 -------------------------------------
 Particle #JFCQEDHGNNZCLN-UHFFFAOYSA-N
 -------------------------------------
 Symbolic Z-matrix:
 Charge =  0 Multiplicity = 1

 SCF Done:  E(RB-P86) =  -496.484805793     A.U. after   15 cycles
 SCF Done:  E(RB-P86) =  -496.501750505     A.U. after   11 cycles
 SCF Done:  E(RB-P86) =  -496.504263772     A.U. after   11 cycles
 SCF Done:  E(RB-P86) =  -496.504457394     A.U. after   10 cycles
 SCF Done:  E(RB-P86) =  -496.504473761     A.U. after   10 cycles
 SCF Done:  E(RB-P86) =  -496.504498820     A.U. after   10 cycles
 SCF Done:  E(RB-P86) =  -496.504521686     A.U. after    9 cycles
 SCF Done:  E(RB-P86) =  -496.504590813     A.U. after    9 cycles
 SCF Done:  E(RB-P86) =  -496.504729048     A.U. after   14 cycles
 SCF Done:  E(RB-P86) =  -496.504932272     A.U. after   10 cycles
 SCF Done:  E(RB-P86) =  -496.505779079     A.U. after    9 cycles
 SCF Done:  E(RB-P86) =  -496.505779816     A.U. after    8 cycles
 SCF Done:  E(RB-P86) =  -496.505779935     A.U. after    7 cycles
 SCF Done:  E(RB-P86) =  -496.505780221     A.U. after    8 cycles
 SCF Done:  E(RB-P86) =  -496.505780820     A.U. after    8 cycles
 SCF Done:  E(RB-P86) =  -496.505782213     A.U. after    9 cycles
 SCF Done:  E(RB-P86) =  -496.505783724     A.U. after    9 cycles
 SCF Done:  E(RB-P86) =  -496.505784594     A.U. after    9 cycles
 SCF Done:  E(RB-P86) =  -496.505784660     A.U. after    7 cycles
 Optimization completed.
    -- Stationary point found.
 Normal termination of Gaussian 16 at Mon Feb 22 21:16:03 2021.
 Gaussian 16:  ES64L-G16RevC.01  3-Jul-2019

 ---------------------------------------------------------
 # BP86/TZVP SCRF=COSMORS geom=CHECKPOINT guess=CHECKPOINT
 ---------------------------------------------------------

 -------------------------------------------
 COSMO-file for #JFCQEDHGNNZCLN-UHFFFAOYSA-N
 -------------------------------------------
 Structure from the checkpoint file:  "JFCQEDHGNNZCLN-UHFFFAOYSA-N.chk"
 Charge =  0 Multiplicity = 1

                         Standard orientation:
 ---------------------------------------------------------------------
 Center     Atomic      Atomic             Coordinates (Angstroms)
 Number     Number       Type             X           Y           Z
 ---------------------------------------------------------------------
      1          8           0       -2.508586    1.301235   -0.489924
      2          6           0       -2.494659    0.152018   -0.078167
      3          8           0       -3.632480   -0.559582    0.162782
      4          6           0       -1.260546   -0.665350    0.232480
      5          6           0        0.041877    0.081792   -0.057077
      6          6           0        1.268414   -0.790200    0.275880
      7          6           0        2.576382   -0.099005   -0.035841
      8          8           0        3.416267   -0.490578   -0.831983
      9          8           0        2.725563    1.049964    0.683052
     10          1           0       -4.395069    0.020016   -0.051521
     11          1           0       -1.319227   -0.966550    1.292162
     12          1           0       -1.323596   -1.601443   -0.346948
     13          1           0        0.076419    1.010662    0.529945
     14          1           0        0.070704    0.373975   -1.118262
     15          1           0        1.249870   -1.728750   -0.294262
     16          1           0        1.263024   -1.043423    1.349260
     17          1           0        3.582964    1.451675    0.424561
 ---------------------------------------------------------------------

 SCF Done:  E(RB-P86) =  -496.500886693     A.U. after   10 cycles

 The electronic state is 1-A.
 Alpha  occ. eigenvalues --  -18.82077 -18.82030 -18.77162 -18.77087 -10.03454
 Alpha  occ. eigenvalues --  -10.03404  -9.91535  -9.91410  -9.90924  -1.02274
 Alpha  occ. eigenvalues --   -1.02262  -0.94116  -0.94029  -0.74491  -0.68600
 Alpha  occ. eigenvalues --   -0.60403  -0.55249  -0.52926  -0.46241  -0.45132
 Alpha  occ. eigenvalues --   -0.44275  -0.43813  -0.42551  -0.41050  -0.39451
 Alpha  occ. eigenvalues --   -0.36439  -0.36032  -0.34652  -0.33389  -0.32337
 Alpha  occ. eigenvalues --   -0.30487  -0.29364  -0.29148  -0.25146  -0.24618
 Alpha virt. eigenvalues --   -0.05060  -0.04620   0.01946   0.03041   0.04861
 Alpha virt. eigenvalues --    0.07058   0.07221   0.07757   0.11112   0.11680
 Alpha virt. eigenvalues --    0.12619   0.13727   0.14472   0.15867   0.16800

 Mulliken charges:
               1
     1  O   -0.361634
     2  C    0.208538
     3  O   -0.285685
     4  C   -0.272439
     5  C   -0.293142
     6  C   -0.266248
     7  C    0.213328
     8  O   -0.362024
     9  O   -0.281775
    10  H    0.331872
    11  H    0.189402
    12  H    0.187766
    13  H    0.160779
    14  H    0.154193
    15  H    0.164880
    16  H    0.179759
    17  H    0.332430
 Sum of Mulliken charges =  -0.00000

 Dipole moment (field-independent basis, Debye):
    X=             -1.7486    Y=             -1.1092    Z=              2.2775  Tot=              3.0782
 Quadrupole moment (field-independent basis, Debye-Ang):
   XX=            -51.1701   YY=            -55.7762   ZZ=            -54.6179
   XY=              9.8974   XZ=              5.3474   YZ=             -0.0387

 Normal termination of Gaussian 16 at Mon Feb 22 21:16:11 2021.
