 Gaussian 16, Revision C.01,

 -------------------------------------------------------------
 #P BP86/TZVP EmpiricalDispersion=GD3 SCRF=(Solvent=Water) Opt
 -------------------------------------------------------------

 -------------------------------------
 Particle #JGOAIQNSOGZNBX-UHFFFAOYSA-N
 -------------------------------------
 Symbolic Z-matrix:
 Charge =  0 Multiplicity = 1

 SCF Done:  E(RB-P86) =  -982.691073336     A.U. after   15 cycles
 SCF Done:  E(RB-P86) =  -982.733475798     A.U. after   12 cycles
 SCF Done:  E(RB-P86) =  -982.745990948     A.U. after   12 cycles
 SCF Done:  E(RB-P86) =  -982.747250106     A.U. after   12 cycles
 SCF Done:  E(RB-P86) =  -982.748007598     A.U. after   11 cycles
 SCF Done:  E(RB-P86) =  -982.747772819     A.U. after   14 cycles
 SCF Done:  E(RB-P86) =  -982.748687932     A.U. after   12 cycles
 SCF Done:  E(RB-P86) =  -982.748814112     A.U. after   10 cycles
 SCF Done:  E(RB-P86) =  -982.748944869     A.U. after   11 cycles
 SCF Done:  E(RB-P86) =  -982.748995904     A.U. after   11 cycles
 SCF Done:  E(RB-P86) =  -982.750401575     A.U. after   10 cycles
 SCF Done:  E(RB-P86) =  -982.750407704     A.U. after   10 cycles
 SCF Done:  E(RB-P86) =  -982.750411545     A.U. after   11 cycles
 SCF Done:  E(RB-P86) =  -982.750425146     A.U. after   10 cycles
 SCF Done:  E(RB-P86) =  -982.750433698     A.U. after   10 cycles
 SCF Done:  E(RB-P86) =  -982.750434337     A.U. after   10 cycles
 SCF Done:  E(RB-P86) =  -982.750434844     A.U. after    9 cycles
 SCF Done:  E(RB-P86) =  -982.750435135     A.U. after    8 cycles
 SCF Done:  E(RB-P86) =  -982.750435239     A.U. after    8 cycles
 Optimization completed.
    -- Stationary point found.
 Normal termination of Gaussian 16 at Tue Feb 23 01:13:48 2021.
 Gaussian 16:  ES64L-G16RevC.01  3-Jul-2019

 ---------------------------------------------------------
 # BP86/TZVP SCRF=COSMORS geom=CHECKPOINT guess=CHECKPOINT
 ---------------------------------------------------------

 -------------------------------------------
 COSMO-file for #JGOAIQNSOGZNBX-UHFFFAOYSA-N
 -------------------------------------------
 Structure from the checkpoint file:  "JGOAIQNSOGZNBX-UHFFFAOYSA-N.chk"
 Charge =  0 Multiplicity = 1

                         Standard orientation:
 ---------------------------------------------------------------------
 Center     Atomic      Atomic             Coordinates (Angstroms)
 Number     Number       Type             X           Y           Z
 ---------------------------------------------------------------------
      1          6           0       -5.944506    0.513073   -1.237226
      2          6           0       -4.700005    0.874992   -0.425353
      3          7           0       -4.024178   -0.306214    0.150183
      4          6           0       -4.719594   -0.811084    1.350145
      5          6           0       -4.400889   -2.276957    1.648318
      6          6           0       -2.603841   -0.036193    0.411436
      7          6           0       -1.783745   -0.299641   -0.845562
      8          8           0       -0.405998    0.076085   -0.532874
      9          6           0        0.502061   -0.093408   -1.518375
     10          8           0        0.227485   -0.500659   -2.636901
     11          6           0        1.924870    0.246787   -1.056645
     12          6           0        1.975436    1.469680   -0.141877
     13          6           0        1.928397    1.360265    1.255789
     14          6           0        1.941611    2.505869    2.059075
     15          6           0        2.006204    3.777323    1.475040
     16          6           0        2.058367    3.895038    0.080632
     17          6           0        2.043882    2.747751   -0.720640
     18          6           0        2.599380   -0.991032   -0.467098
     19          6           0        1.907660   -1.916699    0.331381
     20          6           0        2.576054   -3.014461    0.887442
     21          6           0        3.943138   -3.200568    0.653799
     22          6           0        4.639549   -2.282339   -0.142725
     23          6           0        3.970827   -1.187768   -0.699963
     24          1           0       -5.678673   -0.163566   -2.063101
     25          1           0       -6.709710    0.016205   -0.622180
     26          1           0       -6.399849    1.420930   -1.661704
     27          1           0       -3.984165    1.383777   -1.089132
     28          1           0       -4.956972    1.607398    0.372734
     29          1           0       -5.800950   -0.715487    1.173673
     30          1           0       -4.490467   -0.177122    2.236237
     31          1           0       -4.950594   -2.613245    2.540762
     32          1           0       -3.329075   -2.436560    1.841504
     33          1           0       -4.691219   -2.912740    0.798587
     34          1           0       -2.241171   -0.704914    1.205015
     35          1           0       -2.432028    1.002908    0.764165
     36          1           0       -2.129316    0.296201   -1.703514
     37          1           0       -1.817305   -1.363410   -1.123271
     38          1           0        2.456662    0.498148   -1.986528
     39          1           0        1.882253    0.373083    1.719335
     40          1           0        1.905305    2.404479    3.146067
     41          1           0        2.020440    4.670700    2.102919
     42          1           0        2.115219    4.881304   -0.385236
     43          1           0        2.086439    2.844858   -1.808939
     44          1           0        0.842493   -1.778819    0.527324
     45          1           0        2.023710   -3.725847    1.505178
     46          1           0        4.463327   -4.057326    1.087056
     47          1           0        5.705805   -2.420667   -0.334562
     48          1           0        4.518061   -0.473967   -1.321024
 ---------------------------------------------------------------------

 SCF Done:  E(RB-P86) =  -982.705589789     A.U. after   11 cycles

 The electronic state is 1-A.
 Alpha  occ. eigenvalues --  -18.82804 -18.77225 -13.99936 -10.03385  -9.95368
 Alpha  occ. eigenvalues --   -9.93366  -9.92436  -9.92261  -9.92093  -9.91734
 Alpha  occ. eigenvalues --   -9.91671  -9.90750  -9.90733  -9.90707  -9.90698
 Alpha  occ. eigenvalues --   -9.90613  -9.90591  -9.90581  -9.90576  -9.90478
 Alpha  occ. eigenvalues --   -9.90458  -9.88322  -9.88306  -1.02713  -0.94558
 Alpha  occ. eigenvalues --   -0.84586  -0.80022  -0.78433  -0.74012  -0.70442
 Alpha  occ. eigenvalues --   -0.68959  -0.68426  -0.68281  -0.67963  -0.65501
 Alpha  occ. eigenvalues --   -0.63330  -0.58267  -0.56046  -0.55839  -0.55191
 Alpha  occ. eigenvalues --   -0.54604  -0.53424  -0.52041  -0.50665  -0.47696
 Alpha  occ. eigenvalues --   -0.47544  -0.45136  -0.44617  -0.43869  -0.42588
 Alpha  occ. eigenvalues --   -0.42407  -0.41954  -0.40973  -0.40751  -0.40269
 Alpha  occ. eigenvalues --   -0.39536  -0.38955  -0.38319  -0.38056  -0.37715
 Alpha  occ. eigenvalues --   -0.36758  -0.36634  -0.35033  -0.34371  -0.33830
 Alpha  occ. eigenvalues --   -0.33778  -0.33100  -0.32733  -0.32296  -0.31706
 Alpha  occ. eigenvalues --   -0.31240  -0.31117  -0.30725  -0.30419  -0.29894
 Alpha  occ. eigenvalues --   -0.29567  -0.28862  -0.27625  -0.26132  -0.23967
 Alpha  occ. eigenvalues --   -0.23809  -0.23221  -0.22671  -0.18652
 Alpha virt. eigenvalues --   -0.06262  -0.05853  -0.05078  -0.04429  -0.03768
 Alpha virt. eigenvalues --    0.02127   0.02833   0.03831   0.04315   0.04692
 Alpha virt. eigenvalues --    0.04788   0.05044   0.05726   0.07104   0.07360

 Mulliken charges:
               1
     1  C   -0.396658
     2  C   -0.208225
     3  N   -0.218446
     4  C   -0.214029
     5  C   -0.390902
     6  C   -0.280365
     7  C   -0.118457
     8  O   -0.144911
     9  C    0.202395
    10  O   -0.345205
    11  C   -0.245630
    12  C   -0.057582
    13  C   -0.095125
    14  C   -0.149272
    15  C   -0.146006
    16  C   -0.125441
    17  C   -0.146362
    18  C   -0.096746
    19  C   -0.116121
    20  C   -0.147967
    21  C   -0.137853
    22  C   -0.137403
    23  C   -0.129819
    24  H    0.131149
    25  H    0.135219
    26  H    0.142401
    27  H    0.162051
    28  H    0.129248
    29  H    0.157889
    30  H    0.128797
    31  H    0.142163
    32  H    0.136194
    33  H    0.131121
    34  H    0.184403
    35  H    0.148622
    36  H    0.164238
    37  H    0.158451
    38  H    0.238199
    39  H    0.171905
    40  H    0.145358
    41  H    0.148550
    42  H    0.147288
    43  H    0.145034
    44  H    0.202085
    45  H    0.146511
    46  H    0.149444
    47  H    0.148395
    48  H    0.151416
 Sum of Mulliken charges =  -0.00000

 Dipole moment (field-independent basis, Debye):
    X=             -0.8398    Y=              1.3322    Z=              3.4684  Tot=              3.8092
 Quadrupole moment (field-independent basis, Debye-Ang):
   XX=           -124.1095   YY=           -129.4213   ZZ=           -143.9052
   XY=             -3.4365   XZ=             -4.8428   YZ=             -9.5045

 Normal termination of Gaussian 16 at Tue Feb 23 01:15:04 2021.
