 Gaussian 16, Revision C.01,

 -------------------------------------------------------------
 #P BP86/TZVP EmpiricalDispersion=GD3 SCRF=(Solvent=Water) Opt
 -------------------------------------------------------------

 -------------------------------------
 Particle #JNMRHUJNCSQMMB-UHFFFAOYSA-N
 -------------------------------------
 Symbolic Z-matrix:
 Charge =  0 Multiplicity = 1

 SCF Done:  E(RB-P86) =  -1459.70446246     A.U. after   16 cycles
 SCF Done:  E(RB-P86) =  -1459.75071283     A.U. after   13 cycles
 SCF Done:  E(RB-P86) =  -1459.76945144     A.U. after   13 cycles
 SCF Done:  E(RB-P86) =  -1459.77061991     A.U. after   12 cycles
 SCF Done:  E(RB-P86) =  -1459.77138584     A.U. after   12 cycles
 SCF Done:  E(RB-P86) =  -1459.77191481     A.U. after   15 cycles
 SCF Done:  E(RB-P86) =  -1459.77250591     A.U. after   11 cycles
 SCF Done:  E(RB-P86) =  -1459.77330251     A.U. after   12 cycles
 SCF Done:  E(RB-P86) =  -1459.77396476     A.U. after   15 cycles
 SCF Done:  E(RB-P86) =  -1459.77509151     A.U. after   11 cycles
 SCF Done:  E(RB-P86) =  -1459.77666982     A.U. after    7 cycles
 SCF Done:  E(RB-P86) =  -1459.77656582     A.U. after   12 cycles
 SCF Done:  E(RB-P86) =  -1459.77668021     A.U. after   12 cycles
 SCF Done:  E(RB-P86) =  -1459.77668598     A.U. after   11 cycles
 SCF Done:  E(RB-P86) =  -1459.77669109     A.U. after   11 cycles
 SCF Done:  E(RB-P86) =  -1459.77669466     A.U. after   10 cycles
 SCF Done:  E(RB-P86) =  -1459.77669498     A.U. after    9 cycles
 SCF Done:  E(RB-P86) =  -1459.77669510     A.U. after    8 cycles
 SCF Done:  E(RB-P86) =  -1459.77669542     A.U. after    7 cycles
 Optimization completed.
    -- Stationary point found.
 Normal termination of Gaussian 16 at Mon Feb 22 21:32:17 2021.
 Gaussian 16:  ES64L-G16RevC.01  3-Jul-2019

 ---------------------------------------------------------
 # BP86/TZVP SCRF=COSMORS geom=CHECKPOINT guess=CHECKPOINT
 ---------------------------------------------------------

 -------------------------------------------
 COSMO-file for #JNMRHUJNCSQMMB-UHFFFAOYSA-N
 -------------------------------------------
 Structure from the checkpoint file:  "JNMRHUJNCSQMMB-UHFFFAOYSA-N.chk"
 Charge =  0 Multiplicity = 1

                         Standard orientation:
 ---------------------------------------------------------------------
 Center     Atomic      Atomic             Coordinates (Angstroms)
 Number     Number       Type             X           Y           Z
 ---------------------------------------------------------------------
      1          7           0        4.259806   -1.748358    0.140328
      2          6           0        3.176747   -0.910728    0.142565
      3          6           0        3.073622    0.139880   -0.807817
      4          6           0        1.993080    1.009265   -0.789849
      5          6           0        1.008177    0.866936    0.201497
      6         16           0       -0.445824    1.891224    0.142333
      7          8           0       -1.101341    1.894315    1.481007
      8          8           0       -0.169327    3.162073   -0.586761
      9          7           0       -1.598508    1.046079   -0.930257
     10          6           0       -1.788768   -0.319589   -0.692997
     11          7           0       -1.395875   -1.269233   -1.511122
     12          6           0       -1.767949   -2.507410   -1.031449
     13          6           0       -2.426823   -2.518641    0.170555
     14         16           0       -2.652155   -0.887245    0.747435
     15          6           0        1.079977   -0.170002    1.146937
     16          6           0        2.159049   -1.042247    1.123345
     17          1           0        4.872451   -1.767260   -0.668857
     18          1           0        4.229834   -2.603611    0.686222
     19          1           0        3.849771    0.257118   -1.566840
     20          1           0        1.917496    1.808366   -1.528898
     21          1           0       -1.274695    1.194737   -1.893837
     22          1           0       -1.512427   -3.397726   -1.604653
     23          1           0       -2.774437   -3.369448    0.750748
     24          1           0        0.301755   -0.278690    1.902887
     25          1           0        2.222626   -1.842448    1.863601
 ---------------------------------------------------------------------

 SCF Done:  E(RB-P86) =  -1459.75673677     A.U. after   12 cycles

 The electronic state is 1-A.
 Alpha  occ. eigenvalues --  -88.36342 -88.18372 -18.78998 -18.78959 -14.05636
 Alpha  occ. eigenvalues --  -14.01971 -14.01747 -10.00606  -9.96279  -9.94256
 Alpha  occ. eigenvalues --   -9.93931  -9.93871  -9.92597  -9.92585  -9.91256
 Alpha  occ. eigenvalues --   -9.91217  -7.89084  -7.73600  -5.91291  -5.91269
 Alpha  occ. eigenvalues --   -5.91072  -5.75879  -5.75485  -5.75114  -1.03717
 Alpha  occ. eigenvalues --   -0.93756  -0.91534  -0.85854  -0.84766  -0.79208
 Alpha  occ. eigenvalues --   -0.74309  -0.70351  -0.69857  -0.67365  -0.62042
 Alpha  occ. eigenvalues --   -0.57625  -0.56580  -0.54658  -0.53456  -0.50354
 Alpha  occ. eigenvalues --   -0.48634  -0.47967  -0.46812  -0.46288  -0.43398
 Alpha  occ. eigenvalues --   -0.42145  -0.40871  -0.40237  -0.39462  -0.39139
 Alpha  occ. eigenvalues --   -0.37964  -0.37292  -0.36601  -0.34029  -0.32196
 Alpha  occ. eigenvalues --   -0.31980  -0.31415  -0.30105  -0.29574  -0.28898
 Alpha  occ. eigenvalues --   -0.28309  -0.26781  -0.26237  -0.25083  -0.22061
 Alpha  occ. eigenvalues --   -0.20006
 Alpha virt. eigenvalues --   -0.08760  -0.06476  -0.05870  -0.02683  -0.01634
 Alpha virt. eigenvalues --   -0.00360   0.01223   0.03078   0.03465   0.03972
 Alpha virt. eigenvalues --    0.04724   0.05623   0.06313   0.06845   0.07635

 Mulliken charges:
               1
     1  N   -0.361338
     2  C    0.154677
     3  C   -0.223298
     4  C   -0.054780
     5  C   -0.266706
     6  S    0.615780
     7  O   -0.378290
     8  O   -0.390056
     9  N   -0.241197
    10  C   -0.193200
    11  N   -0.105020
    12  C   -0.195553
    13  C   -0.191093
    14  S    0.164205
    15  C   -0.030711
    16  C   -0.241997
    17  H    0.281787
    18  H    0.282022
    19  H    0.166482
    20  H    0.167776
    21  H    0.300639
    22  H    0.170733
    23  H    0.229471
    24  H    0.174184
    25  H    0.165483
 Sum of Mulliken charges =  -0.00000

 Dipole moment (field-independent basis, Debye):
    X=              6.4544    Y=             -9.8077    Z=             -1.2192  Tot=             11.8041
 Quadrupole moment (field-independent basis, Debye-Ang):
   XX=            -82.3843   YY=           -107.1567   ZZ=           -106.3872
   XY=             -4.8658   XZ=             -5.1606   YZ=             -9.6639

 Normal termination of Gaussian 16 at Mon Feb 22 21:32:42 2021.
