 Gaussian 16, Revision C.01,

 -------------------------------------------------------------
 #P BP86/TZVP EmpiricalDispersion=GD3 SCRF=(Solvent=Water) Opt
 -------------------------------------------------------------

 -------------------------------------
 Particle #JOOXCMJARBKPKM-UHFFFAOYSA-N
 -------------------------------------
 Symbolic Z-matrix:
 Charge =  0 Multiplicity = 1

 SCF Done:  E(RB-P86) =  -421.207974175     A.U. after   15 cycles
 SCF Done:  E(RB-P86) =  -421.219984647     A.U. after   11 cycles
 SCF Done:  E(RB-P86) =  -421.221106921     A.U. after   11 cycles
 SCF Done:  E(RB-P86) =  -421.221145963     A.U. after   10 cycles
 SCF Done:  E(RB-P86) =  -421.221196772     A.U. after   10 cycles
 SCF Done:  E(RB-P86) =  -421.221232617     A.U. after   10 cycles
 SCF Done:  E(RB-P86) =  -421.221236822     A.U. after    9 cycles
 SCF Done:  E(RB-P86) =  -421.221243892     A.U. after   10 cycles
 SCF Done:  E(RB-P86) =  -421.221314033     A.U. after   11 cycles
 SCF Done:  E(RB-P86) =  -421.221353978     A.U. after   11 cycles
 SCF Done:  E(RB-P86) =  -421.224176239     A.U. after   10 cycles
 SCF Done:  E(RB-P86) =  -421.224215673     A.U. after   10 cycles
 SCF Done:  E(RB-P86) =  -421.224262566     A.U. after   10 cycles
 SCF Done:  E(RB-P86) =  -421.224279272     A.U. after   10 cycles
 SCF Done:  E(RB-P86) =  -421.224296934     A.U. after   10 cycles
 SCF Done:  E(RB-P86) =  -421.224303209     A.U. after    9 cycles
 SCF Done:  E(RB-P86) =  -421.224305466     A.U. after    9 cycles
 SCF Done:  E(RB-P86) =  -421.224305648     A.U. after    8 cycles
 SCF Done:  E(RB-P86) =  -421.224305652     A.U. after    9 cycles
 Optimization completed.
    -- Stationary point found.
 Normal termination of Gaussian 16 at Mon Feb 22 21:17:03 2021.
 Gaussian 16:  ES64L-G16RevC.01  3-Jul-2019

 ---------------------------------------------------------
 # BP86/TZVP SCRF=COSMORS geom=CHECKPOINT guess=CHECKPOINT
 ---------------------------------------------------------

 -------------------------------------------
 COSMO-file for #JOOXCMJARBKPKM-UHFFFAOYSA-N
 -------------------------------------------
 Structure from the checkpoint file:  "JOOXCMJARBKPKM-UHFFFAOYSA-N.chk"
 Charge =  0 Multiplicity = 1

                         Standard orientation:
 ---------------------------------------------------------------------
 Center     Atomic      Atomic             Coordinates (Angstroms)
 Number     Number       Type             X           Y           Z
 ---------------------------------------------------------------------
      1          6           0       -1.624421   -0.373623   -1.392665
      2          6           0       -1.624982    0.017283    0.068704
      3          8           0       -2.418795   -0.473069    0.868012
      4          6           0       -0.650232    1.102289    0.515309
      5          6           0        0.730310    1.097368   -0.147509
      6          6           0        1.500797   -0.178293    0.115213
      7          8           0        1.028365   -1.204352    0.580752
      8          8           0        2.804168   -0.062183   -0.253772
      9          1           0       -2.496904   -0.998693   -1.617061
     10          1           0       -1.619828    0.518590   -2.038246
     11          1           0       -0.708276   -0.941343   -1.621512
     12          1           0       -1.141536    2.063389    0.279615
     13          1           0       -0.562966    1.044948    1.609351
     14          1           0        0.660162    1.216895   -1.241485
     15          1           0        1.331091    1.949379    0.203729
     16          1           0        3.239521   -0.926477   -0.088632
 ---------------------------------------------------------------------

 SCF Done:  E(RB-P86) =  -421.217488005     A.U. after   11 cycles

 The electronic state is 1-A.
 Alpha  occ. eigenvalues --  -18.82352 -18.77464 -18.76603 -10.03713  -9.99366
 Alpha  occ. eigenvalues --   -9.92103  -9.91119  -9.89728  -1.02613  -0.96236
 Alpha  occ. eigenvalues --   -0.94441  -0.73919  -0.67510  -0.63100  -0.55002
 Alpha  occ. eigenvalues --   -0.48460  -0.46046  -0.44520  -0.43841  -0.40799
 Alpha  occ. eigenvalues --   -0.40399  -0.40011  -0.36688  -0.35604  -0.34948
 Alpha  occ. eigenvalues --   -0.34067  -0.32410  -0.31518  -0.29594  -0.25326
 Alpha  occ. eigenvalues --   -0.21904
 Alpha virt. eigenvalues --   -0.06665  -0.05036   0.02072   0.03871   0.06416
 Alpha virt. eigenvalues --    0.07655   0.08265   0.09933   0.10450   0.11793
 Alpha virt. eigenvalues --    0.12304   0.13996   0.14391   0.15717   0.17278

 Mulliken charges:
               1
     1  C   -0.448354
     2  C    0.156189
     3  O   -0.344237
     4  C   -0.272671
     5  C   -0.319551
     6  C    0.214267
     7  O   -0.352593
     8  O   -0.275453
     9  H    0.162538
    10  H    0.184048
    11  H    0.180810
    12  H    0.203487
    13  H    0.161291
    14  H    0.211100
    15  H    0.205206
    16  H    0.333924
 Sum of Mulliken charges =  -0.00000

 Dipole moment (field-independent basis, Debye):
    X=              3.8989    Y=              3.5012    Z=             -3.7009  Tot=              6.4153
 Quadrupole moment (field-independent basis, Debye-Ang):
   XX=            -50.6922   YY=            -46.4436   ZZ=            -48.0050
   XY=             -6.6166   XZ=              6.7230   YZ=              3.4779

 Normal termination of Gaussian 16 at Mon Feb 22 21:17:13 2021.
