 Gaussian 16, Revision C.01,

 -------------------------------------------------------------
 #P BP86/TZVP EmpiricalDispersion=GD3 SCRF=(Solvent=Water) Opt
 -------------------------------------------------------------

 -------------------------------------
 Particle #JUGOREOARAHOCO-UHFFFAOYSA-M
 -------------------------------------
 Symbolic Z-matrix:
 Charge =  0 Multiplicity = 1

 SCF Done:  E(RB-P86) =  -942.036526986     A.U. after   13 cycles
 SCF Done:  E(RB-P86) =  -942.052871820     A.U. after   11 cycles
 SCF Done:  E(RB-P86) =  -942.055435838     A.U. after   11 cycles
 SCF Done:  E(RB-P86) =  -942.055814492     A.U. after   10 cycles
 SCF Done:  E(RB-P86) =  -942.055806974     A.U. after   10 cycles
 SCF Done:  E(RB-P86) =  -942.056292979     A.U. after    9 cycles
 SCF Done:  E(RB-P86) =  -942.056455457     A.U. after    9 cycles
 SCF Done:  E(RB-P86) =  -942.056631160     A.U. after   10 cycles
 SCF Done:  E(RB-P86) =  -942.056647361     A.U. after    8 cycles
 SCF Done:  E(RB-P86) =  -942.056663750     A.U. after    9 cycles
 SCF Done:  E(RB-P86) =  -942.056715103     A.U. after    8 cycles
 SCF Done:  E(RB-P86) =  -942.056715345     A.U. after    7 cycles
 SCF Done:  E(RB-P86) =  -942.056715561     A.U. after    7 cycles
 SCF Done:  E(RB-P86) =  -942.056715672     A.U. after    6 cycles
 SCF Done:  E(RB-P86) =  -942.056715854     A.U. after    7 cycles
 SCF Done:  E(RB-P86) =  -942.056715936     A.U. after    7 cycles
 SCF Done:  E(RB-P86) =  -942.056716075     A.U. after    7 cycles
 SCF Done:  E(RB-P86) =  -942.056716035     A.U. after    7 cycles
 SCF Done:  E(RB-P86) =  -942.056716114     A.U. after    6 cycles
 Optimization completed on the basis of negligible forces.
    -- Stationary point found.
 Normal termination of Gaussian 16 at Sat Aug 21 09:45:01 2021.
 Gaussian 16:  ES64L-G16RevC.01  3-Jul-2019

 ---------------------------------------------------------
 # BP86/TZVP SCRF=COSMORS geom=CHECKPOINT guess=CHECKPOINT
 ---------------------------------------------------------

 -------------------------------------------
 COSMO-file for #JUGOREOARAHOCO-UHFFFAOYSA-M
 -------------------------------------------
 Structure from the checkpoint file:  "JUGOREOARAHOCO-UHFFFAOYSA-M.chk"
 Charge =  0 Multiplicity = 1

                         Standard orientation:
 ---------------------------------------------------------------------
 Center     Atomic      Atomic             Coordinates (Angstroms)
 Number     Number       Type             X           Y           Z
 ---------------------------------------------------------------------
      1          6           0       -5.027408    0.462843    0.042175
      2          6           0       -3.767312   -0.359442    0.016943
      3          8           0       -3.696909   -1.576382   -0.013775
      4          8           0       -2.660999    0.446642    0.014997
      5          6           0       -1.387205   -0.246117   -0.041786
      6          6           0       -0.363882    0.885151   -0.027286
      7          7           0        1.084977    0.429287   -0.013719
      8          6           0        1.962580    1.663597   -0.050824
      9          6           0        1.409426   -0.346759    1.243797
     10          6           0        1.408368   -0.423743   -1.220445
     11         17           0        4.827726   -0.555548    0.027048
     12          1           0       -4.963601    1.247373    0.808046
     13          1           0       -5.154770    0.958035   -0.932287
     14          1           0       -5.886890   -0.188122    0.233109
     15          1           0       -1.338549   -0.847920   -0.959933
     16          1           0       -1.294250   -0.914236    0.825864
     17          1           0       -0.508558    1.506270    0.866180
     18          1           0       -0.490272    1.514224   -0.917992
     19          1           0        1.735925    2.278435    0.827547
     20          1           0        3.007860    1.323532   -0.034493
     21          1           0        1.744925    2.218289   -0.970372
     22          1           0        0.834756   -1.278110    1.252464
     23          1           0        1.149285    0.270630    2.110978
     24          1           0        2.486531   -0.565686    1.220466
     25          1           0        2.488864   -0.624244   -1.195282
     26          1           0        1.128203    0.129193   -2.124205
     27          1           0        0.850227   -1.363610   -1.159097
 ---------------------------------------------------------------------

 SCF Done:  E(RB-P86) =  -942.040770595     A.U. after   11 cycles

 The electronic state is 1-A.
 Alpha  occ. eigenvalues -- -100.64615 -18.83001 -18.77315 -14.13715 -10.03523
 Alpha  occ. eigenvalues --   -9.96977  -9.95986  -9.94080  -9.94044  -9.94010
 Alpha  occ. eigenvalues --   -9.90661  -9.08490  -6.90308  -6.90302  -6.90300
 Alpha  occ. eigenvalues --   -1.02789  -0.94843  -0.93701  -0.73573  -0.68486
 Alpha  occ. eigenvalues --   -0.67853  -0.67815  -0.63664  -0.62197  -0.55731
 Alpha  occ. eigenvalues --   -0.53332  -0.47870  -0.47706  -0.46505  -0.45430
 Alpha  occ. eigenvalues --   -0.44692  -0.42925  -0.41311  -0.39431  -0.37966
 Alpha  occ. eigenvalues --   -0.37015  -0.36284  -0.35748  -0.35691  -0.35552
 Alpha  occ. eigenvalues --   -0.35392  -0.35303  -0.33041  -0.32767  -0.28075
 Alpha  occ. eigenvalues --   -0.25231  -0.21552  -0.21546  -0.21341
 Alpha virt. eigenvalues --   -0.04912  -0.00197   0.02046   0.04046   0.05026
 Alpha virt. eigenvalues --    0.05158   0.05905   0.06039   0.06297   0.07364
 Alpha virt. eigenvalues --    0.08401   0.09630   0.09797   0.10329   0.11001

 Mulliken charges:
               1
     1  C   -0.439033
     2  C    0.280501
     3  O   -0.370819
     4  O   -0.180611
     5  C   -0.191528
     6  C   -0.157615
     7  N   -0.196580
     8  C   -0.250912
     9  C   -0.276749
    10  C   -0.283012
    11  Cl  -0.876868
    12  H    0.175588
    13  H    0.186550
    14  H    0.168846
    15  H    0.190976
    16  H    0.186225
    17  H    0.207110
    18  H    0.207638
    19  H    0.190865
    20  H    0.148808
    21  H    0.191354
    22  H    0.199358
    23  H    0.194276
    24  H    0.147593
    25  H    0.148973
    26  H    0.196322
    27  H    0.202743
 Sum of Mulliken charges =  -0.00000

 Dipole moment (field-independent basis, Debye):
    X=            -16.4320    Y=              6.8346    Z=             -0.2336  Tot=             17.7982
 Quadrupole moment (field-independent basis, Debye-Ang):
   XX=           -164.1533   YY=            -77.9413   ZZ=            -70.0633
   XY=              3.1399   XZ=             -0.5924   YZ=             -0.0659

 Normal termination of Gaussian 16 at Sat Aug 21 09:45:26 2021.
