 Gaussian 16, Revision C.01,

 -------------------------------------------------------------
 #P BP86/TZVP EmpiricalDispersion=GD3 SCRF=(Solvent=Water) Opt
 -------------------------------------------------------------

 -------------------------------------
 Particle #KDYFGRWQOYBRFD-UHFFFAOYSA-N
 -------------------------------------
 Symbolic Z-matrix:
 Charge =  0 Multiplicity = 1

 SCF Done:  E(RB-P86) =  -457.156491304     A.U. after   14 cycles
 SCF Done:  E(RB-P86) =  -457.173282986     A.U. after   11 cycles
 SCF Done:  E(RB-P86) =  -457.175779954     A.U. after   11 cycles
 SCF Done:  E(RB-P86) =  -457.176105000     A.U. after   10 cycles
 SCF Done:  E(RB-P86) =  -457.176346605     A.U. after   10 cycles
 SCF Done:  E(RB-P86) =  -457.176591207     A.U. after   12 cycles
 SCF Done:  E(RB-P86) =  -457.177077463     A.U. after   11 cycles
 SCF Done:  E(RB-P86) =  -457.177997441     A.U. after   13 cycles
 SCF Done:  E(RB-P86) =  -457.178467032     A.U. after   11 cycles
 SCF Done:  E(RB-P86) =  -457.178691794     A.U. after   11 cycles
 SCF Done:  E(RB-P86) =  -457.179006518     A.U. after    9 cycles
 SCF Done:  E(RB-P86) =  -457.179007439     A.U. after    9 cycles
 SCF Done:  E(RB-P86) =  -457.179009114     A.U. after    8 cycles
 SCF Done:  E(RB-P86) =  -457.179009201     A.U. after    7 cycles
 SCF Done:  E(RB-P86) =  -457.179009394     A.U. after    7 cycles
 SCF Done:  E(RB-P86) =  -457.179009421     A.U. after    7 cycles
 SCF Done:  E(RB-P86) =  -457.179009421     A.U. after    7 cycles
 SCF Done:  E(RB-P86) =  -457.179009443     A.U. after    7 cycles
 SCF Done:  E(RB-P86) =  -457.179009387     A.U. after    6 cycles
 Optimization completed.
    -- Stationary point found.
 Normal termination of Gaussian 16 at Mon Feb 22 21:15:51 2021.
 Gaussian 16:  ES64L-G16RevC.01  3-Jul-2019

 ---------------------------------------------------------
 # BP86/TZVP SCRF=COSMORS geom=CHECKPOINT guess=CHECKPOINT
 ---------------------------------------------------------

 -------------------------------------------
 COSMO-file for #KDYFGRWQOYBRFD-UHFFFAOYSA-N
 -------------------------------------------
 Structure from the checkpoint file:  "KDYFGRWQOYBRFD-UHFFFAOYSA-N.chk"
 Charge =  0 Multiplicity = 1

                         Standard orientation:
 ---------------------------------------------------------------------
 Center     Atomic      Atomic             Coordinates (Angstroms)
 Number     Number       Type             X           Y           Z
 ---------------------------------------------------------------------
      1          8           0       -2.174963   -1.304916   -0.000028
      2          6           0       -1.932932   -0.108291    0.000007
      3          8           0       -2.906105    0.844405    0.000046
      4          6           0       -0.557544    0.519876   -0.000008
      5          6           0        0.557544   -0.519879   -0.000047
      6          6           0        1.932933    0.108291   -0.000012
      7          8           0        2.174961    1.304917   -0.000035
      8          8           0        2.906105   -0.844404    0.000064
      9          1           0       -3.772582    0.383387    0.000047
     10          1           0       -0.484153    1.181674   -0.876998
     11          1           0       -0.484110    1.181623    0.877017
     12          1           0        0.484148   -1.181607   -0.877091
     13          1           0        0.484116   -1.181690    0.876928
     14          1           0        3.772583   -0.383387    0.000078
 ---------------------------------------------------------------------

 SCF Done:  E(RB-P86) =  -457.176974820     A.U. after   10 cycles

 The electronic state is 1-A.
 Alpha  occ. eigenvalues --  -18.82188 -18.82188 -18.77318 -18.77317 -10.03705
 Alpha  occ. eigenvalues --  -10.03704  -9.92031  -9.92020  -1.02496  -1.02436
 Alpha  occ. eigenvalues --   -0.94321  -0.94294  -0.74031  -0.65727  -0.57359
 Alpha  occ. eigenvalues --   -0.52448  -0.47422  -0.45151  -0.44842  -0.44035
 Alpha  occ. eigenvalues --   -0.41604  -0.41584  -0.36950  -0.36499  -0.35286
 Alpha  occ. eigenvalues --   -0.34533  -0.32039  -0.29488  -0.29486  -0.25671
 Alpha  occ. eigenvalues --   -0.24805
 Alpha virt. eigenvalues --   -0.05250  -0.04496   0.02064   0.02964   0.05101
 Alpha virt. eigenvalues --    0.07477   0.08400   0.11957   0.13117   0.13964
 Alpha virt. eigenvalues --    0.14674   0.14818   0.17144   0.18741   0.20730

 Mulliken charges:
               1
     1  O   -0.361075
     2  C    0.207250
     3  O   -0.283567
     4  C   -0.276764
     5  C   -0.276698
     6  C    0.207282
     7  O   -0.361117
     8  O   -0.283564
     9  H    0.333370
    10  H    0.190395
    11  H    0.190368
    12  H    0.190380
    13  H    0.190363
    14  H    0.333376
 Sum of Mulliken charges =  -0.00000

 Dipole moment (field-independent basis, Debye):
    X=             -0.0000    Y=             -0.0003    Z=              0.0005  Tot=              0.0006
 Quadrupole moment (field-independent basis, Debye-Ang):
   XX=            -34.1161   YY=            -57.6369   ZZ=            -44.4231
   XY=             -7.6393   XZ=              0.0010   YZ=             -0.0000

 Normal termination of Gaussian 16 at Mon Feb 22 21:15:58 2021.
