 Gaussian 16, Revision C.01,

 -------------------------------------------------------------
 #P BP86/TZVP EmpiricalDispersion=GD3 SCRF=(Solvent=Water) Opt
 -------------------------------------------------------------

 -------------------------------------
 Particle #KRKNYBCHXYNGOX-UHFFFAOYSA-N
 -------------------------------------
 Symbolic Z-matrix:
 Charge =  0 Multiplicity = 1

 SCF Done:  E(RB-P86) =  -760.374556876     A.U. after   16 cycles
 SCF Done:  E(RB-P86) =  -760.401397755     A.U. after   12 cycles
 SCF Done:  E(RB-P86) =  -760.410915052     A.U. after   12 cycles
 SCF Done:  E(RB-P86) =  -760.412138117     A.U. after   11 cycles
 SCF Done:  E(RB-P86) =  -760.413113398     A.U. after   11 cycles
 SCF Done:  E(RB-P86) =  -760.414054051     A.U. after   11 cycles
 SCF Done:  E(RB-P86) =  -760.414838535     A.U. after   11 cycles
 SCF Done:  E(RB-P86) =  -760.415623384     A.U. after   11 cycles
 SCF Done:  E(RB-P86) =  -760.416160337     A.U. after   11 cycles
 SCF Done:  E(RB-P86) =  -760.416853163     A.U. after   11 cycles
 SCF Done:  E(RB-P86) =  -760.421144689     A.U. after   10 cycles
 SCF Done:  E(RB-P86) =  -760.421153288     A.U. after   10 cycles
 SCF Done:  E(RB-P86) =  -760.421154031     A.U. after    9 cycles
 SCF Done:  E(RB-P86) =  -760.421156164     A.U. after    9 cycles
 SCF Done:  E(RB-P86) =  -760.421155044     A.U. after    9 cycles
 SCF Done:  E(RB-P86) =  -760.421155786     A.U. after    8 cycles
 SCF Done:  E(RB-P86) =  -760.421156205     A.U. after    8 cycles
 SCF Done:  E(RB-P86) =  -760.421156149     A.U. after    8 cycles
 SCF Done:  E(RB-P86) =  -760.421156273     A.U. after    7 cycles
 Optimization completed.
    -- Stationary point found.

 The electronic state is 1-A.
 Alpha  occ. eigenvalues --  -18.84079 -18.83170 -18.83099 -18.79103 -18.78346
 Alpha  occ. eigenvalues --  -18.77812 -18.77782 -10.05583 -10.04374 -10.04240
 Alpha  occ. eigenvalues --  -10.00099  -9.93966  -9.93142  -1.04502  -1.03564
 Alpha  occ. eigenvalues --   -1.03173  -0.96864  -0.95649  -0.94998  -0.94578
 Alpha  occ. eigenvalues --   -0.75965  -0.70657  -0.65412  -0.58588  -0.57600
 Alpha  occ. eigenvalues --   -0.55107  -0.48748  -0.48102  -0.46243  -0.45635
 Alpha  occ. eigenvalues --   -0.44742  -0.44328  -0.43812  -0.43243  -0.42273
 Alpha  occ. eigenvalues --   -0.41982  -0.39183  -0.37774  -0.37092  -0.36594
 Alpha  occ. eigenvalues --   -0.36008  -0.34864  -0.32012  -0.31010  -0.30358
 Alpha  occ. eigenvalues --   -0.29729  -0.26972  -0.25782  -0.25512  -0.25248
 Alpha virt. eigenvalues --   -0.06817  -0.06058  -0.05179   0.00858   0.01884
 Alpha virt. eigenvalues --    0.02484   0.03652   0.06195   0.06485   0.07661
 Alpha virt. eigenvalues --    0.09562   0.10324   0.11851   0.12410   0.14097

 Mulliken charges:
               1
     1  O   -0.348505
     2  C    0.271431
     3  O   -0.242874
     4  C   -0.370149
     5  C   -0.028994
     6  O   -0.340258
     7  C   -0.288763
     8  C    0.196568
     9  O   -0.309470
    10  O   -0.256141
    11  C    0.159254
    12  O   -0.291403
    13  O   -0.244544
    14  H    0.322767
    15  H    0.221405
    16  H    0.206014
    17  H    0.296936
    18  H    0.212255
    19  H    0.195336
    20  H    0.317787
    21  H    0.321349
 Sum of Mulliken charges =  -0.00000

 Dipole moment (field-independent basis, Debye):
    X=             -3.8940    Y=             -2.0544    Z=             -5.6412  Tot=              7.1559
 Quadrupole moment (field-independent basis, Debye-Ang):
   XX=            -62.3801   YY=            -70.5314   ZZ=            -79.7811
   XY=             -5.4143   XZ=             -4.0366   YZ=             -6.3463

 Normal termination of Gaussian 16 at Mon Feb 22 21:21:57 2021.
 Gaussian 16:  ES64L-G16RevC.01  3-Jul-2019

 ---------------------------------------------------------
 # BP86/TZVP SCRF=COSMORS geom=CHECKPOINT guess=CHECKPOINT
 ---------------------------------------------------------

 -------------------------------------------
 COSMO-file for #KRKNYBCHXYNGOX-UHFFFAOYSA-N
 -------------------------------------------
 Structure from the checkpoint file:  "KRKNYBCHXYNGOX-UHFFFAOYSA-N.chk"
 Charge =  0 Multiplicity = 1

                         Standard orientation:
 ---------------------------------------------------------------------
 Center     Atomic      Atomic             Coordinates (Angstroms)
 Number     Number       Type             X           Y           Z
 ---------------------------------------------------------------------
      1          8           0       -2.452281   -1.127236    0.900773
      2          6           0       -2.513905   -0.308959   -0.012263
      3          8           0       -3.546562   -0.245825   -0.875945
      4          6           0       -1.475722    0.759383   -0.285952
      5          6           0       -0.059249    0.364629    0.221740
      6          8           0       -0.069351    0.097291    1.620266
      7          6           0        0.466566   -0.855172   -0.567586
      8          6           0        1.884611   -1.222755   -0.186945
      9          8           0        2.738197   -0.437469    0.191942
     10          8           0        2.114407   -2.551249   -0.350730
     11          6           0        0.835018    1.608115    0.010778
     12          8           0        1.200494    2.367215    0.884875
     13          8           0        1.081602    1.795207   -1.312108
     14          1           0       -4.205482   -0.927171   -0.615667
     15          1           0       -1.805364    1.662161    0.255333
     16          1           0       -1.459992    1.003960   -1.355740
     17          1           0       -0.817191   -0.530144    1.752741
     18          1           0        0.461768   -0.647148   -1.649340
     19          1           0       -0.195097   -1.714998   -0.395815
     20          1           0        3.058242   -2.719833   -0.137610
     21          1           0        1.607164    2.618258   -1.405117
 ---------------------------------------------------------------------

 SCF Done:  E(RB-P86) =  -760.408930228     A.U. after  129 cycles
 Error termination via Lnk1e in /sw/arch/RedHatEnterpriseServer7/EB_production/2019/software/Gaussian/g16.c01/l502.exe at Mon Feb 22 21:24:36 2021.
