 Gaussian 16, Revision C.01,

 -------------------------------------------------------------
 #P BP86/TZVP EmpiricalDispersion=GD3 SCRF=(Solvent=Water) Opt
 -------------------------------------------------------------

 -------------------------------------
 Particle #KXDAEFPNCMNJSK-UHFFFAOYSA-N
 -------------------------------------
 Symbolic Z-matrix:
 Charge =  0 Multiplicity = 1

 SCF Done:  E(RB-P86) =  -401.086730026     A.U. after   14 cycles
 SCF Done:  E(RB-P86) =  -401.112272500     A.U. after   12 cycles
 SCF Done:  E(RB-P86) =  -401.114134872     A.U. after   11 cycles
 SCF Done:  E(RB-P86) =  -401.114245006     A.U. after   10 cycles
 SCF Done:  E(RB-P86) =  -401.114305661     A.U. after   10 cycles
 SCF Done:  E(RB-P86) =  -401.114336190     A.U. after   10 cycles
 SCF Done:  E(RB-P86) =  -401.114405968     A.U. after   10 cycles
 SCF Done:  E(RB-P86) =  -401.113829687     A.U. after   14 cycles
 SCF Done:  E(RB-P86) =  -401.114689921     A.U. after   11 cycles
 SCF Done:  E(RB-P86) =  -401.114771546     A.U. after   10 cycles
 SCF Done:  E(RB-P86) =  -401.114847656     A.U. after   10 cycles
 SCF Done:  E(RB-P86) =  -401.114865011     A.U. after    9 cycles
 SCF Done:  E(RB-P86) =  -401.114870805     A.U. after    9 cycles
 SCF Done:  E(RB-P86) =  -401.114871583     A.U. after    8 cycles
 SCF Done:  E(RB-P86) =  -401.114871607     A.U. after    6 cycles
 SCF Done:  E(RB-P86) =  -401.114871601     A.U. after    7 cycles
 Optimization completed.
    -- Stationary point found.
 Normal termination of Gaussian 16 at Mon Feb 22 21:14:47 2021.
 Gaussian 16:  ES64L-G16RevC.01  3-Jul-2019

 ---------------------------------------------------------
 # BP86/TZVP SCRF=COSMORS geom=CHECKPOINT guess=CHECKPOINT
 ---------------------------------------------------------

 -------------------------------------------
 COSMO-file for #KXDAEFPNCMNJSK-UHFFFAOYSA-N
 -------------------------------------------
 Structure from the checkpoint file:  "KXDAEFPNCMNJSK-UHFFFAOYSA-N.chk"
 Charge =  0 Multiplicity = 1

                         Standard orientation:
 ---------------------------------------------------------------------
 Center     Atomic      Atomic             Coordinates (Angstroms)
 Number     Number       Type             X           Y           Z
 ---------------------------------------------------------------------
      1          7           0       -2.418794    0.983871    0.338625
      2          6           0       -1.725350   -0.125640   -0.041448
      3          8           0       -2.298038   -1.168684   -0.399352
      4          6           0       -0.222753   -0.021696   -0.012666
      5          6           0        0.514073   -1.205986    0.160971
      6          6           0        1.910250   -1.172885    0.186137
      7          6           0        2.586488    0.043208    0.018961
      8          6           0        1.859835    1.224682   -0.172675
      9          6           0        0.461333    1.195215   -0.184672
     10          1           0       -3.433976    0.940206    0.352669
     11          1           0       -1.973808    1.782244    0.779270
     12          1           0       -0.024709   -2.147855    0.279038
     13          1           0        2.473457   -2.096563    0.333857
     14          1           0        3.678021    0.069134    0.032128
     15          1           0        2.382645    2.171894   -0.319176
     16          1           0       -0.089027    2.121931   -0.360989
 ---------------------------------------------------------------------

 SCF Done:  E(RB-P86) =  -401.109912013     A.U. after   11 cycles

 The electronic state is 1-A.
 Alpha  occ. eigenvalues --  -18.74715 -14.02537 -10.00701  -9.92346  -9.91555
 Alpha  occ. eigenvalues --   -9.91257  -9.91197  -9.91087  -9.91046  -0.95778
 Alpha  occ. eigenvalues --   -0.83298  -0.79117  -0.69794  -0.68750  -0.58934
 Alpha  occ. eigenvalues --   -0.55709  -0.53011  -0.50118  -0.46417  -0.43587
 Alpha  occ. eigenvalues --   -0.41365  -0.39897  -0.38500  -0.37956  -0.37441
 Alpha  occ. eigenvalues --   -0.33722  -0.32188  -0.31044  -0.24934  -0.24528
 Alpha  occ. eigenvalues --   -0.24255  -0.22884
 Alpha virt. eigenvalues --   -0.07997  -0.05453   0.00089   0.02929   0.05113
 Alpha virt. eigenvalues --    0.07270   0.08219   0.09174   0.09573   0.10144
 Alpha virt. eigenvalues --    0.11591   0.12621   0.13985   0.16910   0.17713

 Mulliken charges:
               1
     1  N   -0.370009
     2  C    0.166521
     3  O   -0.426059
     4  C   -0.067791
     5  C   -0.135155
     6  C   -0.148615
     7  C   -0.130586
     8  C   -0.158170
     9  C   -0.100773
    10  H    0.285730
    11  H    0.300466
    12  H    0.154194
    13  H    0.153286
    14  H    0.154656
    15  H    0.153539
    16  H    0.168767
 Sum of Mulliken charges =  -0.00000

 Dipole moment (field-independent basis, Debye):
    X=              1.8965    Y=              4.8642    Z=              2.0060  Tot=              5.5930
 Quadrupole moment (field-independent basis, Debye-Ang):
   XX=            -46.2131   YY=            -47.3079   ZZ=            -56.2025
   XY=            -11.7393   XZ=             -4.7789   YZ=             -0.8193

 Normal termination of Gaussian 16 at Mon Feb 22 21:14:57 2021.
