 Gaussian 16, Revision C.01,

 -------------------------------------------------------------
 #P BP86/TZVP EmpiricalDispersion=GD3 SCRF=(Solvent=Water) Opt
 -------------------------------------------------------------

 -------------------------------------
 Particle #LNTHITQWFMADLM-UHFFFAOYSA-N
 -------------------------------------
 Symbolic Z-matrix:
 Charge =  0 Multiplicity = 1

 SCF Done:  E(RB-P86) =  -646.749865090     A.U. after   15 cycles
 SCF Done:  E(RB-P86) =  -646.770272769     A.U. after   12 cycles
 SCF Done:  E(RB-P86) =  -646.772923707     A.U. after   12 cycles
 SCF Done:  E(RB-P86) =  -646.773066548     A.U. after   11 cycles
 SCF Done:  E(RB-P86) =  -646.773095226     A.U. after   10 cycles
 SCF Done:  E(RB-P86) =  -646.773103191     A.U. after   10 cycles
 SCF Done:  E(RB-P86) =  -646.773126235     A.U. after   10 cycles
 SCF Done:  E(RB-P86) =  -646.773143162     A.U. after   10 cycles
 SCF Done:  E(RB-P86) =  -646.773150403     A.U. after   10 cycles
 SCF Done:  E(RB-P86) =  -646.773151539     A.U. after    9 cycles
 Optimization completed.
    -- Stationary point found.
 Normal termination of Gaussian 16 at Mon Feb 22 21:14:54 2021.
 Gaussian 16:  ES64L-G16RevC.01  3-Jul-2019

 ---------------------------------------------------------
 # BP86/TZVP SCRF=COSMORS geom=CHECKPOINT guess=CHECKPOINT
 ---------------------------------------------------------

 -------------------------------------------
 COSMO-file for #LNTHITQWFMADLM-UHFFFAOYSA-N
 -------------------------------------------
 Structure from the checkpoint file:  "LNTHITQWFMADLM-UHFFFAOYSA-N.chk"
 Charge =  0 Multiplicity = 1

                         Standard orientation:
 ---------------------------------------------------------------------
 Center     Atomic      Atomic             Coordinates (Angstroms)
 Number     Number       Type             X           Y           Z
 ---------------------------------------------------------------------
      1          8           0        3.196207    1.143051    0.002481
      2          6           0        2.541362    0.104372    0.000216
      3          8           0        3.137954   -1.126310   -0.002531
      4          6           0        1.062429    0.031694    0.000175
      5          6           0        0.379550   -1.199092    0.000353
      6          6           0       -1.013434   -1.200338    0.000317
      7          8           0       -1.800337   -2.330376    0.000385
      8          6           0       -1.743854    0.006526   -0.000102
      9          8           0       -3.108570    0.008262   -0.000271
     10          6           0       -1.050998    1.234280   -0.000313
     11          8           0       -1.819918    2.370904   -0.000957
     12          6           0        0.344936    1.240724   -0.000450
     13          1           0        4.106001   -0.972725   -0.001463
     14          1           0        0.929285   -2.140576    0.000640
     15          1           0       -1.247468   -3.132692    0.003491
     16          1           0       -3.405668   -0.925195    0.002433
     17          1           0       -1.235185    3.151458    0.001477
     18          1           0        0.890415    2.186484   -0.000612
 ---------------------------------------------------------------------

 SCF Done:  E(RB-P86) =  -646.770418961     A.U. after   12 cycles

 The electronic state is 1-A.
 Alpha  occ. eigenvalues --  -18.81896 -18.81604 -18.81505 -18.81000 -18.76693
 Alpha  occ. eigenvalues --  -10.03384  -9.97556  -9.97493  -9.97454  -9.92687
 Alpha  occ. eigenvalues --   -9.91429  -9.91277  -1.02036  -1.00581  -0.98555
 Alpha  occ. eigenvalues --   -0.97275  -0.93674  -0.79360  -0.70615  -0.68648
 Alpha  occ. eigenvalues --   -0.61852  -0.60079  -0.55054  -0.52592  -0.50862
 Alpha  occ. eigenvalues --   -0.47787  -0.45272  -0.44428  -0.43550  -0.41611
 Alpha  occ. eigenvalues --   -0.40249  -0.40190  -0.37234  -0.36756  -0.35706
 Alpha  occ. eigenvalues --   -0.34666  -0.33320  -0.32981  -0.32933  -0.29673
 Alpha  occ. eigenvalues --   -0.28851  -0.25084  -0.21277  -0.20416
 Alpha virt. eigenvalues --   -0.08731  -0.03639   0.00167   0.01357   0.02825
 Alpha virt. eigenvalues --    0.03535   0.05169   0.08108   0.08873   0.09498
 Alpha virt. eigenvalues --    0.10993   0.12888   0.13773   0.14749   0.16748

 Mulliken charges:
               1
     1  O   -0.374313
     2  C    0.186058
     3  O   -0.285824
     4  C   -0.116579
     5  C   -0.072251
     6  C    0.080847
     7  O   -0.355105
     8  C   -0.048909
     9  O   -0.293863
    10  C    0.018094
    11  O   -0.312931
    12  C   -0.116351
    13  H    0.331648
    14  H    0.176866
    15  H    0.347391
    16  H    0.333042
    17  H    0.337109
    18  H    0.165071
 Sum of Mulliken charges =  -0.00000

 Dipole moment (field-independent basis, Debye):
    X=              0.3246    Y=             -4.0924    Z=              0.0142  Tot=              4.1053
 Quadrupole moment (field-independent basis, Debye-Ang):
   XX=            -73.8089   YY=            -51.1156   ZZ=            -70.9184
   XY=             -1.6724   XZ=             -0.0444   YZ=             -0.0288

 Normal termination of Gaussian 16 at Mon Feb 22 21:15:07 2021.
