 Gaussian 16, Revision C.01,

 -------------------------------------------------------------
 #P BP86/TZVP EmpiricalDispersion=GD3 SCRF=(Solvent=Water) Opt
 -------------------------------------------------------------

 -------------------------------------
 Particle #MGSRCZKZVOBKFT-UHFFFAOYSA-N
 -------------------------------------
 Symbolic Z-matrix:
 Charge =  0 Multiplicity = 1

 SCF Done:  E(RB-P86) =  -464.887938365     A.U. after   14 cycles
 SCF Done:  E(RB-P86) =  -464.902259467     A.U. after   12 cycles
 SCF Done:  E(RB-P86) =  -464.902623275     A.U. after   10 cycles
 SCF Done:  E(RB-P86) =  -464.902639537     A.U. after   10 cycles
 SCF Done:  E(RB-P86) =  -464.902641693     A.U. after    8 cycles
 SCF Done:  E(RB-P86) =  -464.902642072     A.U. after    7 cycles
 SCF Done:  E(RB-P86) =  -464.902642286     A.U. after    7 cycles
 SCF Done:  E(RB-P86) =  -464.902642645     A.U. after    8 cycles
 SCF Done:  E(RB-P86) =  -464.902643561     A.U. after    8 cycles
 SCF Done:  E(RB-P86) =  -464.902644755     A.U. after    8 cycles
 SCF Done:  E(RB-P86) =  -464.902647143     A.U. after    9 cycles
 SCF Done:  E(RB-P86) =  -464.902648022     A.U. after    8 cycles
 SCF Done:  E(RB-P86) =  -464.902648303     A.U. after    8 cycles
 SCF Done:  E(RB-P86) =  -464.902648291     A.U. after    7 cycles
 SCF Done:  E(RB-P86) =  -464.902648284     A.U. after    7 cycles
 SCF Done:  E(RB-P86) =  -464.902648342     A.U. after    7 cycles
 SCF Done:  E(RB-P86) =  -464.902648335     A.U. after    7 cycles
 SCF Done:  E(RB-P86) =  -464.902648392     A.U. after    7 cycles
 SCF Done:  E(RB-P86) =  -464.902648345     A.U. after    7 cycles
 Optimization completed.
    -- Stationary point found.
 Normal termination of Gaussian 16 at Mon Feb 22 21:19:12 2021.
 Gaussian 16:  ES64L-G16RevC.01  3-Jul-2019

 ---------------------------------------------------------
 # BP86/TZVP SCRF=COSMORS geom=CHECKPOINT guess=CHECKPOINT
 ---------------------------------------------------------

 -------------------------------------------
 COSMO-file for #MGSRCZKZVOBKFT-UHFFFAOYSA-N
 -------------------------------------------
 Structure from the checkpoint file:  "MGSRCZKZVOBKFT-UHFFFAOYSA-N.chk"
 Charge =  0 Multiplicity = 1

                         Standard orientation:
 ---------------------------------------------------------------------
 Center     Atomic      Atomic             Coordinates (Angstroms)
 Number     Number       Type             X           Y           Z
 ---------------------------------------------------------------------
      1          6           0        3.745934   -0.426282    0.011846
      2          6           0        2.240431   -0.301510   -0.014556
      3          6           0        1.412504   -1.435874   -0.018522
      4          6           0        0.020918   -1.295045   -0.008635
      5          6           0       -0.607259   -0.040400    0.003794
      6          6           0       -2.124960    0.084737    0.008740
      7          6           0       -2.740994   -0.513601   -1.271637
      8          6           0       -2.737925   -0.556245    1.269624
      9          6           0        0.232427    1.092948    0.003930
     10          8           0       -0.366445    2.338610    0.010157
     11          6           0        1.629641    0.960895   -0.005401
     12          1           0        4.073138   -1.401486   -0.376506
     13          1           0        4.227445    0.362404   -0.585375
     14          1           0        4.129715   -0.335395    1.041720
     15          1           0        1.858814   -2.433363   -0.031129
     16          1           0       -0.601457   -2.193878   -0.014162
     17          1           0       -2.369536    1.157201    0.027087
     18          1           0       -3.832376   -0.365766   -1.282101
     19          1           0       -2.547844   -1.596366   -1.335047
     20          1           0       -2.320240   -0.041316   -2.172310
     21          1           0       -3.829086   -0.407667    1.287685
     22          1           0       -2.546463   -1.640798    1.296443
     23          1           0       -2.314525   -0.114987    2.184670
     24          1           0        0.329095    3.021747    0.010270
     25          1           0        2.250579    1.863053   -0.007591
 ---------------------------------------------------------------------

 SCF Done:  E(RB-P86) =  -464.884839951     A.U. after   11 cycles

 The electronic state is 1-A.
 Alpha  occ. eigenvalues --  -18.79979  -9.95939  -9.91060  -9.90416  -9.90268
 Alpha  occ. eigenvalues --   -9.89827  -9.89677  -9.89178  -9.89035  -9.88297
 Alpha  occ. eigenvalues --   -9.88293  -0.97282  -0.78264  -0.73338  -0.68349
 Alpha  occ. eigenvalues --   -0.66878  -0.62014  -0.61410  -0.56479  -0.54196
 Alpha  occ. eigenvalues --   -0.50480  -0.48134  -0.44537  -0.41944  -0.38705
 Alpha  occ. eigenvalues --   -0.38334  -0.38294  -0.37953  -0.36731  -0.35910
 Alpha  occ. eigenvalues --   -0.34723  -0.33746  -0.33529  -0.32193  -0.31403
 Alpha  occ. eigenvalues --   -0.30212  -0.28854  -0.28443  -0.27992  -0.22005
 Alpha  occ. eigenvalues --   -0.19910
 Alpha virt. eigenvalues --   -0.04388  -0.02828   0.02460   0.03644   0.04283
 Alpha virt. eigenvalues --    0.05658   0.07157   0.07449   0.08315   0.08563
 Alpha virt. eigenvalues --    0.09292   0.10083   0.10272   0.11795   0.11962

 Mulliken charges:
               1
     1  C   -0.485337
     2  C    0.037855
     3  C   -0.173428
     4  C   -0.145453
     5  C   -0.077922
     6  C   -0.145831
     7  C   -0.437312
     8  C   -0.438337
     9  C    0.093380
    10  O   -0.327564
    11  C   -0.184888
    12  H    0.157683
    13  H    0.156914
    14  H    0.164751
    15  H    0.139279
    16  H    0.145673
    17  H    0.168434
    18  H    0.148900
    19  H    0.144738
    20  H    0.144149
    21  H    0.149140
    22  H    0.144697
    23  H    0.144190
    24  H    0.327342
    25  H    0.148947
 Sum of Mulliken charges =  -0.00000

 Dipole moment (field-independent basis, Debye):
    X=              1.7064    Y=              0.9710    Z=              0.0584  Tot=              1.9642
 Quadrupole moment (field-independent basis, Debye-Ang):
   XX=            -61.2053   YY=            -59.3318   ZZ=            -72.0886
   XY=              4.9245   XZ=              0.1801   YZ=              0.0289

 Normal termination of Gaussian 16 at Mon Feb 22 21:19:29 2021.
