 Gaussian 16, Revision C.01,

 -------------------------------------------------------------
 #P BP86/TZVP EmpiricalDispersion=GD3 SCRF=(Solvent=Water) Opt
 -------------------------------------------------------------

 -------------------------------------
 Particle #NHGXDBSUJJNIRV-UHFFFAOYSA-M
 -------------------------------------
 Symbolic Z-matrix:
 Charge =  0 Multiplicity = 1

 SCF Done:  E(RB-P86) =  -1146.66384386     A.U. after   12 cycles
 SCF Done:  E(RB-P86) =  -1146.67663839     A.U. after   10 cycles
 SCF Done:  E(RB-P86) =  -1146.68145665     A.U. after   10 cycles
 SCF Done:  E(RB-P86) =  -1146.68362826     A.U. after   10 cycles
 SCF Done:  E(RB-P86) =  -1146.68451551     A.U. after   10 cycles
 SCF Done:  E(RB-P86) =  -1146.68466737     A.U. after   10 cycles
 SCF Done:  E(RB-P86) =  -1146.68538811     A.U. after    9 cycles
 SCF Done:  E(RB-P86) =  -1146.68557644     A.U. after    9 cycles
 SCF Done:  E(RB-P86) =  -1146.68565502     A.U. after    8 cycles
 SCF Done:  E(RB-P86) =  -1146.68569442     A.U. after    8 cycles
 SCF Done:  E(RB-P86) =  -1146.68577533     A.U. after    7 cycles
 SCF Done:  E(RB-P86) =  -1146.68577807     A.U. after    7 cycles
 SCF Done:  E(RB-P86) =  -1146.68578122     A.U. after    7 cycles
 SCF Done:  E(RB-P86) =  -1146.68578251     A.U. after    7 cycles
 SCF Done:  E(RB-P86) =  -1146.68578867     A.U. after    8 cycles
 SCF Done:  E(RB-P86) =  -1146.68578916     A.U. after    7 cycles
 SCF Done:  E(RB-P86) =  -1146.68579000     A.U. after    6 cycles
 SCF Done:  E(RB-P86) =  -1146.68579011     A.U. after    5 cycles
 SCF Done:  E(RB-P86) =  -1146.68579026     A.U. after    6 cycles
 Optimization completed.
    -- Stationary point found.
 Normal termination of Gaussian 16 at Sat Aug 21 10:20:31 2021.
 Gaussian 16:  ES64L-G16RevC.01  3-Jul-2019

 ---------------------------------------------------------
 # BP86/TZVP SCRF=COSMORS geom=CHECKPOINT guess=CHECKPOINT
 ---------------------------------------------------------

 -------------------------------------------
 COSMO-file for #NHGXDBSUJJNIRV-UHFFFAOYSA-M
 -------------------------------------------
 Structure from the checkpoint file:  "NHGXDBSUJJNIRV-UHFFFAOYSA-M.chk"
 Charge =  0 Multiplicity = 1

                         Standard orientation:
 ---------------------------------------------------------------------
 Center     Atomic      Atomic             Coordinates (Angstroms)
 Number     Number       Type             X           Y           Z
 ---------------------------------------------------------------------
      1          6           0       -0.460098   -2.787180    3.249118
      2          6           0       -1.292260   -2.854014    1.960851
      3          6           0       -0.616251   -2.203517    0.737160
      4          6           0       -0.372031   -0.716317    0.992278
      5          7           0        0.065476    0.145385   -0.207174
      6          6           0        0.774313    1.364189    0.403186
      7          6           0        1.265362    2.418584   -0.584549
      8          6           0        2.133651    3.472064    0.134337
      9          6           0        3.500730    2.946202    0.593135
     10          6           0        0.985916   -0.612897   -1.152427
     11          6           0        2.341775   -0.993290   -0.563665
     12          6           0        3.078360   -1.972280   -1.491765
     13          6           0        4.468874   -2.337677   -0.960340
     14          6           0       -1.153067    0.673331   -0.975149
     15          6           0       -2.173965   -0.349255   -1.458595
     16          6           0       -3.253302    0.360024   -2.295459
     17          6           0       -4.341145   -0.607166   -2.776114
     18         17           0       -2.507872    2.063565    2.039232
     19          1           0       -0.350923   -1.755803    3.617489
     20          1           0       -0.933911   -3.371372    4.051909
     21          1           0        0.550697   -3.195027    3.086453
     22          1           0       -2.275055   -2.379529    2.124530
     23          1           0       -1.494442   -3.907593    1.710097
     24          1           0       -1.254216   -2.362889   -0.140837
     25          1           0        0.336670   -2.720086    0.539020
     26          1           0       -1.265578   -0.208810    1.389052
     27          1           0        0.423365   -0.600594    1.738533
     28          1           0        1.607957    0.956928    0.986664
     29          1           0        0.039736    1.793830    1.102742
     30          1           0        1.862024    1.960652   -1.390334
     31          1           0        0.410044    2.921713   -1.058112
     32          1           0        2.284131    4.314133   -0.559548
     33          1           0        1.575951    3.879190    0.995173
     34          1           0        3.411546    2.155278    1.353536
     35          1           0        4.066346    2.531779   -0.256756
     36          1           0        4.102930    3.753721    1.035458
     37          1           0        1.112545    0.021178   -2.039557
     38          1           0        0.436342   -1.506472   -1.470815
     39          1           0        2.221506   -1.457064    0.428724
     40          1           0        2.962678   -0.094583   -0.422283
     41          1           0        3.168073   -1.524498   -2.496267
     42          1           0        2.470763   -2.885666   -1.610298
     43          1           0        4.400474   -2.809100    0.032882
     44          1           0        4.979895   -3.041845   -1.633553
     45          1           0        5.103190   -1.442444   -0.863485
     46          1           0       -0.745353    1.226004   -1.831484
     47          1           0       -1.637028    1.380464   -0.282785
     48          1           0       -1.703787   -1.134780   -2.071587
     49          1           0       -2.660174   -0.838574   -0.600817
     50          1           0       -3.708016    1.163658   -1.691174
     51          1           0       -2.779303    0.850700   -3.162731
     52          1           0       -4.849927   -1.084964   -1.923995
     53          1           0       -3.911892   -1.406264   -3.401158
     54          1           0       -5.102957   -0.084371   -3.373431
 ---------------------------------------------------------------------

 SCF Done:  E(RB-P86) =  -1146.62580612     A.U. after   11 cycles

 The electronic state is 1-A.
 Alpha  occ. eigenvalues -- -100.64570 -14.11939  -9.94388  -9.94088  -9.94051
 Alpha  occ. eigenvalues --   -9.93909  -9.90235  -9.90189  -9.90093  -9.90085
 Alpha  occ. eigenvalues --   -9.89708  -9.89647  -9.89644  -9.89599  -9.88375
 Alpha  occ. eigenvalues --   -9.88364  -9.88343  -9.88336  -9.08440  -6.90255
 Alpha  occ. eigenvalues --   -6.90254  -6.90249  -0.91950  -0.73961  -0.73849
 Alpha  occ. eigenvalues --   -0.73324  -0.72159  -0.67522  -0.67177  -0.66769
 Alpha  occ. eigenvalues --   -0.63715  -0.63421  -0.60731  -0.58809  -0.58517
 Alpha  occ. eigenvalues --   -0.54370  -0.52952  -0.52867  -0.51467  -0.51440
 Alpha  occ. eigenvalues --   -0.47527  -0.46554  -0.45040  -0.43742  -0.42482
 Alpha  occ. eigenvalues --   -0.41157  -0.41030  -0.39383  -0.38970  -0.38368
 Alpha  occ. eigenvalues --   -0.37710  -0.37417  -0.37101  -0.36483  -0.36387
 Alpha  occ. eigenvalues --   -0.35995  -0.34720  -0.34244  -0.34131  -0.32883
 Alpha  occ. eigenvalues --   -0.32751  -0.32064  -0.31759  -0.30809  -0.30557
 Alpha  occ. eigenvalues --   -0.30332  -0.30047  -0.29757  -0.29620  -0.29347
 Alpha  occ. eigenvalues --   -0.29046  -0.28806  -0.28779  -0.28417  -0.28297
 Alpha  occ. eigenvalues --   -0.21500  -0.21465  -0.21135
 Alpha virt. eigenvalues --    0.00825   0.02148   0.02513   0.02959   0.03195
 Alpha virt. eigenvalues --    0.04020   0.04632   0.04771   0.05227   0.05808
 Alpha virt. eigenvalues --    0.06261   0.06384   0.07105   0.07597   0.08157

 Mulliken charges:
               1
     1  C   -0.457464
     2  C   -0.244238
     3  C   -0.258300
     4  C   -0.313290
     5  N   -0.115875
     6  C   -0.280912
     7  C   -0.245100
     8  C   -0.253316
     9  C   -0.452172
    10  C   -0.320190
    11  C   -0.254171
    12  C   -0.260249
    13  C   -0.423922
    14  C   -0.198490
    15  C   -0.304009
    16  C   -0.264965
    17  C   -0.415319
    18  Cl  -0.883455
    19  H    0.152269
    20  H    0.151587
    21  H    0.139227
    22  H    0.143238
    23  H    0.154126
    24  H    0.200925
    25  H    0.169623
    26  H    0.175969
    27  H    0.240214
    28  H    0.227330
    29  H    0.167721
    30  H    0.171156
    31  H    0.181189
    32  H    0.158117
    33  H    0.138721
    34  H    0.145971
    35  H    0.138616
    36  H    0.154110
    37  H    0.223016
    38  H    0.233099
    39  H    0.180364
    40  H    0.175942
    41  H    0.142665
    42  H    0.141754
    43  H    0.136608
    44  H    0.149293
    45  H    0.138543
    46  H    0.208857
    47  H    0.169527
    48  H    0.170366
    49  H    0.168135
    50  H    0.132920
    51  H    0.142686
    52  H    0.137209
    53  H    0.135587
    54  H    0.148758
 Sum of Mulliken charges =  -0.00000

 Dipole moment (field-independent basis, Debye):
    X=             11.6792    Y=             -8.7964    Z=            -10.2229  Tot=             17.8406
 Quadrupole moment (field-independent basis, Debye-Ang):
   XX=           -146.6139   YY=           -136.5984   ZZ=           -139.3887
   XY=             24.2248   XZ=             22.0534   YZ=            -19.8433

 Normal termination of Gaussian 16 at Sat Aug 21 10:22:11 2021.
