 Gaussian 16, Revision C.01,

 -------------------------------------------------------------
 #P BP86/TZVP EmpiricalDispersion=GD3 SCRF=(Solvent=Water) Opt
 -------------------------------------------------------------

 -------------------------------------
 Particle #NJMWOUFKYKNWDW-UHFFFAOYSA-N
 -------------------------------------
 Symbolic Z-matrix:
 Charge =  1 Multiplicity = 1

 SCF Done:  E(RB-P86) =  -344.737906581     A.U. after   13 cycles
 SCF Done:  E(RB-P86) =  -344.738075679     A.U. after   10 cycles
 SCF Done:  E(RB-P86) =  -344.738098566     A.U. after    8 cycles
 SCF Done:  E(RB-P86) =  -344.738229542     A.U. after    9 cycles
 SCF Done:  E(RB-P86) =  -344.738221571     A.U. after   10 cycles
 SCF Done:  E(RB-P86) =  -344.738361116     A.U. after    9 cycles
 SCF Done:  E(RB-P86) =  -344.738468415     A.U. after   10 cycles
 SCF Done:  E(RB-P86) =  -344.738522619     A.U. after    9 cycles
 SCF Done:  E(RB-P86) =  -344.738533742     A.U. after    8 cycles
 SCF Done:  E(RB-P86) =  -344.738544552     A.U. after    9 cycles
 SCF Done:  E(RB-P86) =  -344.738545214     A.U. after    8 cycles
 SCF Done:  E(RB-P86) =  -344.738554123     A.U. after    9 cycles
 SCF Done:  E(RB-P86) =  -344.738555667     A.U. after    8 cycles
 SCF Done:  E(RB-P86) =  -344.738556009     A.U. after    7 cycles
 SCF Done:  E(RB-P86) =  -344.738555500     A.U. after    7 cycles
 SCF Done:  E(RB-P86) =  -344.738556036     A.U. after    8 cycles
 SCF Done:  E(RB-P86) =  -344.738556539     A.U. after    6 cycles
 SCF Done:  E(RB-P86) =  -344.738556839     A.U. after    6 cycles
 SCF Done:  E(RB-P86) =  -344.738556832     A.U. after    6 cycles
 Optimization completed.
    -- Stationary point found.
 Normal termination of Gaussian 16 at Tue Feb 23 02:02:54 2021.
 Gaussian 16:  ES64L-G16RevC.01  3-Jul-2019

 ---------------------------------------------------------
 # BP86/TZVP SCRF=COSMORS geom=CHECKPOINT guess=CHECKPOINT
 ---------------------------------------------------------

 -------------------------------------------
 COSMO-file for #NJMWOUFKYKNWDW-UHFFFAOYSA-N
 -------------------------------------------
 Structure from the checkpoint file:  "NJMWOUFKYKNWDW-UHFFFAOYSA-N.chk"
 Charge =  1 Multiplicity = 1

                         Standard orientation:
 ---------------------------------------------------------------------
 Center     Atomic      Atomic             Coordinates (Angstroms)
 Number     Number       Type             X           Y           Z
 ---------------------------------------------------------------------
      1          6           0       -2.853305   -0.290147    0.722001
      2          6           0       -2.039688   -0.332190   -0.569931
      3          7           0       -0.626267    0.041885   -0.341130
      4          6           0       -0.152720    1.327485   -0.129142
      5          6           0        1.191052    1.226327    0.107487
      6          7           0        1.514293   -0.120247    0.042691
      7          6           0        2.859164   -0.684496    0.217524
      8          6           0        0.399160   -0.819607   -0.228139
      9          1           0       -2.447096   -0.991442    1.464241
     10          1           0       -3.891088   -0.577301    0.502558
     11          1           0       -2.861253    0.719673    1.155465
     12          1           0       -2.033754   -1.337339   -1.010254
     13          1           0       -2.435485    0.362566   -1.322434
     14          1           0       -0.803037    2.193104   -0.171326
     15          1           0        1.937998    1.985036    0.308028
     16          1           0        3.248518   -0.388481    1.198456
     17          1           0        3.515467   -0.309815   -0.576945
     18          1           0        2.795430   -1.775675    0.160799
     19          1           0        0.336140   -1.896023   -0.338313
 ---------------------------------------------------------------------

 SCF Done:  E(RB-P86) =  -344.732586734     A.U. after   10 cycles

 The electronic state is 1-A.
 Alpha  occ. eigenvalues --  -14.10478 -14.10145  -9.99919  -9.95815  -9.95760
 Alpha  occ. eigenvalues --   -9.95509  -9.94747  -9.89780  -0.99807  -0.88746
 Alpha  occ. eigenvalues --   -0.74550  -0.71689  -0.67350  -0.61068  -0.58409
 Alpha  occ. eigenvalues --   -0.56144  -0.50963  -0.46233  -0.44525  -0.43676
 Alpha  occ. eigenvalues --   -0.42929  -0.41715  -0.40242  -0.39616  -0.37075
 Alpha  occ. eigenvalues --   -0.35656  -0.34275  -0.32205  -0.28211  -0.25056
 Alpha virt. eigenvalues --   -0.06210  -0.03440   0.03034   0.03760   0.04542
 Alpha virt. eigenvalues --    0.05560   0.06371   0.07242   0.07873   0.09130
 Alpha virt. eigenvalues --    0.09370   0.10248   0.10653   0.11010   0.11673

 Mulliken charges:
               1
     1  C   -0.397170
     2  C   -0.165273
     3  N   -0.036038
     4  C   -0.059697
     5  C   -0.065457
     6  N   -0.027218
     7  C   -0.288441
     8  C    0.025130
     9  H    0.149282
    10  H    0.168049
    11  H    0.155380
    12  H    0.179220
    13  H    0.187744
    14  H    0.196399
    15  H    0.200411
    16  H    0.189741
    17  H    0.191689
    18  H    0.181815
    19  H    0.214436
 Sum of Mulliken charges =   1.00000

 Dipole moment (field-independent basis, Debye):
    X=              1.8157    Y=             -0.9124    Z=             -0.5547  Tot=              2.1064
 Quadrupole moment (field-independent basis, Debye-Ang):
   XX=            -23.8998   YY=            -36.0821   ZZ=            -47.6101
   XY=             -1.2308   XZ=              3.0532   YZ=              0.9621

 Normal termination of Gaussian 16 at Tue Feb 23 02:03:03 2021.
