 Gaussian 16, Revision C.01,

 -------------------------------------------------------------
 #P BP86/TZVP EmpiricalDispersion=GD3 SCRF=(Solvent=Water) Opt
 -------------------------------------------------------------

 -------------------------------------
 Particle #NLXLAEXVIDQMFP-UHFFFAOYSA-N
 -------------------------------------
 Symbolic Z-matrix:
 Charge =  0 Multiplicity = 1

 SCF Done:  E(RB-P86) =  -517.489331930     A.U. after    9 cycles
 SCF Done:  E(RB-P86) =  -517.490829721     A.U. after    9 cycles
 SCF Done:  E(RB-P86) =  -517.491027720     A.U. after    9 cycles
 SCF Done:  E(RB-P86) =  -517.491160416     A.U. after    9 cycles
 SCF Done:  E(RB-P86) =  -517.490664954     A.U. after    9 cycles
 SCF Done:  E(RB-P86) =  -517.491215905     A.U. after    8 cycles
 SCF Done:  E(RB-P86) =  -517.491210500     A.U. after    8 cycles
 SCF Done:  E(RB-P86) =  -517.491209956     A.U. after    7 cycles
 SCF Done:  E(RB-P86) =  -517.491207360     A.U. after    8 cycles
 SCF Done:  E(RB-P86) =  -517.491206259     A.U. after    8 cycles
 SCF Done:  E(RB-P86) =  -517.491219741     A.U. after    6 cycles
 Optimization completed.
    -- Stationary point found.
 Normal termination of Gaussian 16 at Sat Aug 21 09:32:50 2021.
 Gaussian 16:  ES64L-G16RevC.01  3-Jul-2019

 ---------------------------------------------------------
 # BP86/TZVP SCRF=COSMORS geom=CHECKPOINT guess=CHECKPOINT
 ---------------------------------------------------------

 -------------------------------------------
 COSMO-file for #NLXLAEXVIDQMFP-UHFFFAOYSA-N
 -------------------------------------------
 Structure from the checkpoint file:  "NLXLAEXVIDQMFP-UHFFFAOYSA-N.chk"
 Charge =  0 Multiplicity = 1

                         Standard orientation:
 ---------------------------------------------------------------------
 Center     Atomic      Atomic             Coordinates (Angstroms)
 Number     Number       Type             X           Y           Z
 ---------------------------------------------------------------------
      1         17           0       -1.175014   -0.000003    0.000009
      2          7           0        1.820720   -0.000068    0.000034
      3          1           0        2.172066    0.415554    0.869846
      4          1           0        2.169960   -0.961767   -0.076190
      5          1           0        0.719545    0.000324    0.001594
      6          1           0        2.168625    0.546410   -0.795640
 ---------------------------------------------------------------------

 SCF Done:  E(RB-P86) =  -517.502235765     A.U. after    9 cycles

 The electronic state is 1-A.
 Alpha  occ. eigenvalues -- -100.65985 -14.07547  -9.09914  -6.91828  -6.91668
 Alpha  occ. eigenvalues --   -6.91668  -0.87261  -0.65533  -0.48784  -0.48773
 Alpha  occ. eigenvalues --   -0.47060  -0.23563  -0.22739  -0.22739
 Alpha virt. eigenvalues --    0.01343   0.08559   0.08563   0.12700   0.22707
 Alpha virt. eigenvalues --    0.23250   0.23257   0.32367   0.35838   0.35844
 Alpha virt. eigenvalues --    0.36754   0.43776   0.44585   0.44588   0.62495

 Mulliken charges:
               1
     1  Cl  -0.824117
     2  N   -0.345862
     3  H    0.315366
     4  H    0.315214
     5  H    0.224141
     6  H    0.315258
 Sum of Mulliken charges =  -0.00000

 Dipole moment (field-independent basis, Debye):
    X=             12.5272    Y=              0.0012    Z=             -0.0011  Tot=             12.5272
 Quadrupole moment (field-independent basis, Debye-Ang):
   XX=            -11.8590   YY=            -20.3713   ZZ=            -20.3730
   XY=              0.0024   XZ=              0.0013   YZ=              0.0002

 Normal termination of Gaussian 16 at Sat Aug 21 09:32:52 2021.
