 Gaussian 16, Revision C.01,

 -------------------------------------------------------------
 #P BP86/TZVP EmpiricalDispersion=GD3 SCRF=(Solvent=Water) Opt
 -------------------------------------------------------------

 -------------------------------------
 Particle #NOOLISFMXDJSKH-KXUCPTDWSA-N
 -------------------------------------
 Symbolic Z-matrix:
 Charge =  0 Multiplicity = 1

 SCF Done:  E(RB-P86) =  -468.523080148     A.U. after   12 cycles
 SCF Done:  E(RB-P86) =  -468.528873072     A.U. after   10 cycles
 SCF Done:  E(RB-P86) =  -468.529436617     A.U. after   10 cycles
 SCF Done:  E(RB-P86) =  -468.529549612     A.U. after    9 cycles
 SCF Done:  E(RB-P86) =  -468.529578630     A.U. after    9 cycles
 SCF Done:  E(RB-P86) =  -468.529590653     A.U. after    8 cycles
 SCF Done:  E(RB-P86) =  -468.529597768     A.U. after    8 cycles
 SCF Done:  E(RB-P86) =  -468.529601159     A.U. after    8 cycles
 SCF Done:  E(RB-P86) =  -468.529601893     A.U. after    7 cycles
 SCF Done:  E(RB-P86) =  -468.529602353     A.U. after    7 cycles
 SCF Done:  E(RB-P86) =  -468.529602319     A.U. after    6 cycles
 Optimization completed.
    -- Stationary point found.
 Normal termination of Gaussian 16 at Mon Feb 22 21:19:56 2021.
 Gaussian 16:  ES64L-G16RevC.01  3-Jul-2019

 ---------------------------------------------------------
 # BP86/TZVP SCRF=COSMORS geom=CHECKPOINT guess=CHECKPOINT
 ---------------------------------------------------------

 -------------------------------------------
 COSMO-file for #NOOLISFMXDJSKH-KXUCPTDWSA-N
 -------------------------------------------
 Structure from the checkpoint file:  "NOOLISFMXDJSKH-KXUCPTDWSA-N.chk"
 Charge =  0 Multiplicity = 1

                         Standard orientation:
 ---------------------------------------------------------------------
 Center     Atomic      Atomic             Coordinates (Angstroms)
 Number     Number       Type             X           Y           Z
 ---------------------------------------------------------------------
      1          6           0       -2.991636   -1.006620   -0.919964
      2          6           0       -2.208754    0.053002   -0.126674
      3          6           0       -2.602823    0.012407    1.359169
      4          6           0       -0.679195   -0.069371   -0.368751
      5          6           0       -0.056566   -1.362577    0.196234
      6          6           0        1.436180   -1.482915   -0.141503
      7          6           0        2.234104   -0.271797    0.369194
      8          6           0        3.720193   -0.367975    0.004606
      9          6           0        1.603740    1.021055   -0.176609
     10          6           0        0.111554    1.137693    0.157772
     11          8           0       -0.455561    2.336489   -0.429355
     12          1           0       -2.803469   -2.022069   -0.535727
     13          1           0       -4.075507   -0.824801   -0.847380
     14          1           0       -2.716169   -0.993310   -1.986772
     15          1           0       -2.498283    1.041519   -0.520300
     16          1           0       -2.066130    0.770034    1.950306
     17          1           0       -3.681229    0.203799    1.474406
     18          1           0       -2.394131   -0.973672    1.803736
     19          1           0       -0.529992   -0.077399   -1.466851
     20          1           0       -0.601363   -2.237589   -0.190464
     21          1           0       -0.176578   -1.378406    1.293812
     22          1           0        1.849842   -2.411991    0.285797
     23          1           0        1.562185   -1.553942   -1.238337
     24          1           0        2.146096   -0.252882    1.472772
     25          1           0        4.171760   -1.285470    0.413954
     26          1           0        3.849162   -0.388340   -1.090509
     27          1           0        4.285830    0.493064    0.394374
     28          1           0        2.138529    1.901105    0.223077
     29          1           0        1.713686    1.047130   -1.276564
     30          1           0       -0.001053    1.183822    1.260350
     31          1           0        0.070518    3.090067   -0.105686
 ---------------------------------------------------------------------

 SCF Done:  E(RB-P86) =  -468.497379585     A.U. after   10 cycles

 The electronic state is 1-A.
 Alpha  occ. eigenvalues --  -18.76691  -9.93894  -9.89614  -9.89394  -9.89261
 Alpha  occ. eigenvalues --   -9.88605  -9.88579  -9.88523  -9.88038  -9.87841
 Alpha  occ. eigenvalues --   -9.87802  -0.93028  -0.76065  -0.72346  -0.67135
 Alpha  occ. eigenvalues --   -0.66011  -0.61116  -0.60628  -0.55191  -0.53564
 Alpha  occ. eigenvalues --   -0.50085  -0.48340  -0.45246  -0.42024  -0.41080
 Alpha  occ. eigenvalues --   -0.40029  -0.39172  -0.37485  -0.36242  -0.35192
 Alpha  occ. eigenvalues --   -0.34371  -0.33728  -0.33440  -0.32672  -0.31787
 Alpha  occ. eigenvalues --   -0.30159  -0.29993  -0.29703  -0.28190  -0.27779
 Alpha  occ. eigenvalues --   -0.27204  -0.26139  -0.25212  -0.22635
 Alpha virt. eigenvalues --    0.02319   0.02851   0.03244   0.03655   0.06168
 Alpha virt. eigenvalues --    0.07007   0.07213   0.07707   0.08175   0.09088
 Alpha virt. eigenvalues --    0.09511   0.10049   0.10358   0.10937   0.11363

 Mulliken charges:
               1
     1  C   -0.447190
     2  C   -0.052157
     3  C   -0.485045
     4  C   -0.101315
     5  C   -0.319265
     6  C   -0.265988
     7  C   -0.122847
     8  C   -0.424797
     9  C   -0.297052
    10  C   -0.114869
    11  O   -0.411278
    12  H    0.139492
    13  H    0.147635
    14  H    0.140817
    15  H    0.153094
    16  H    0.152005
    17  H    0.147078
    18  H    0.144004
    19  H    0.146010
    20  H    0.155947
    21  H    0.147987
    22  H    0.143552
    23  H    0.127549
    24  H    0.142982
    25  H    0.143614
    26  H    0.132802
    27  H    0.143645
    28  H    0.146201
    29  H    0.129051
    30  H    0.154581
    31  H    0.303758
 Sum of Mulliken charges =  -0.00000

 Dipole moment (field-independent basis, Debye):
    X=              1.7935    Y=             -0.1967    Z=              1.4112  Tot=              2.2906
 Quadrupole moment (field-independent basis, Debye-Ang):
   XX=            -74.0143   YY=            -69.9971   ZZ=            -73.3965
   XY=              3.9172   XZ=              0.0820   YZ=              2.9933

 Normal termination of Gaussian 16 at Mon Feb 22 21:20:20 2021.
