 Gaussian 16, Revision C.01,

 -------------------------------------------------------------
 #P BP86/TZVP EmpiricalDispersion=GD3 SCRF=(Solvent=Water) Opt
 -------------------------------------------------------------

 -------------------------------------
 Particle #NWXMGUDVXFXRIG-WESIUVDSSA-N
 -------------------------------------
 Symbolic Z-matrix:
 Charge =  0 Multiplicity = 1

 SCF Done:  E(RB-P86) =  -1564.73930393     A.U. after   17 cycles
 SCF Done:  E(RB-P86) =  -1564.76536180     A.U. after   14 cycles
 SCF Done:  E(RB-P86) =  -1564.77416270     A.U. after   14 cycles
 SCF Done:  E(RB-P86) =  -1564.78271047     A.U. after   14 cycles
 SCF Done:  E(RB-P86) =  -1564.78464471     A.U. after   14 cycles
 SCF Done:  E(RB-P86) =  -1564.78896911     A.U. after   13 cycles
 SCF Done:  E(RB-P86) =  -1564.78930345     A.U. after   14 cycles
 SCF Done:  E(RB-P86) =  -1564.79221520     A.U. after   14 cycles
 SCF Done:  E(RB-P86) =  -1564.79066100     A.U. after   14 cycles
 SCF Done:  E(RB-P86) =  -1564.79331880     A.U. after   13 cycles
 SCF Done:  E(RB-P86) =  -1564.79948752     A.U. after   11 cycles
 SCF Done:  E(RB-P86) =  -1564.79953429     A.U. after   11 cycles
 SCF Done:  E(RB-P86) =  -1564.79954640     A.U. after   11 cycles
 SCF Done:  E(RB-P86) =  -1564.79954008     A.U. after   11 cycles
 SCF Done:  E(RB-P86) =  -1564.79955780     A.U. after   11 cycles
 SCF Done:  E(RB-P86) =  -1564.79956068     A.U. after   10 cycles
 SCF Done:  E(RB-P86) =  -1564.79956031     A.U. after    9 cycles
 SCF Done:  E(RB-P86) =  -1564.79956252     A.U. after   10 cycles
 SCF Done:  E(RB-P86) =  -1564.79956248     A.U. after    9 cycles
 Optimization completed.
    -- Stationary point found.
 Normal termination of Gaussian 16 at Tue Feb 23 05:38:03 2021.
 Gaussian 16:  ES64L-G16RevC.01  3-Jul-2019

 ---------------------------------------------------------
 # BP86/TZVP SCRF=COSMORS geom=CHECKPOINT guess=CHECKPOINT
 ---------------------------------------------------------

 -------------------------------------------
 COSMO-file for #NWXMGUDVXFXRIG-WESIUVDSSA-N
 -------------------------------------------
 Structure from the checkpoint file:  "NWXMGUDVXFXRIG-WESIUVDSSA-N.chk"
 Charge =  0 Multiplicity = 1

                         Standard orientation:
 ---------------------------------------------------------------------
 Center     Atomic      Atomic             Coordinates (Angstroms)
 Number     Number       Type             X           Y           Z
 ---------------------------------------------------------------------
      1          6           0       -3.379106    1.310519   -3.311405
      2          7           0       -3.573791    0.960149   -1.890641
      3          6           0       -5.010262    0.799387   -1.596737
      4          6           0       -2.729408   -0.230021   -1.523897
      5          6           0       -3.309680   -0.954365   -0.302203
      6          8           0       -4.095881   -1.909693   -0.495779
      7          6           0       -2.928850   -0.477325    1.006803
      8          6           0       -3.524734   -1.041589    2.205666
      9          7           0       -4.425667   -2.014463    2.145703
     10          8           0       -3.179407   -0.589329    3.388916
     11          6           0       -1.916738    0.519552    1.193073
     12          8           0       -1.574829    0.921784    2.349135
     13          6           0       -1.253556    1.179538   -0.046322
     14          8           0       -1.996038    2.377796   -0.304464
     15          6           0        0.185297    1.542410    0.281711
     16          8           0        0.335334    2.689846    0.933638
     17          6           0        1.257880    0.734076   -0.062160
     18          6           0        2.576946    1.124796    0.352801
     19          8           0        2.778329    2.250467    0.964647
     20          6           0        3.711787    0.253812    0.061595
     21          6           0        5.042338    0.743622    0.229435
     22          8           0        5.293558    1.982929    0.708670
     23          6           0        6.136657   -0.067905   -0.117360
     24          6           0        5.912075   -1.355746   -0.586726
     25          6           0        4.607230   -1.866843   -0.716776
     26          6           0        3.504522   -1.078518   -0.395827
     27          6           0        2.069293   -1.626782   -0.417508
     28          6           0        1.925208   -2.898760   -1.258253
     29          8           0        1.663453   -1.904547    0.956078
     30          6           0        1.118020   -0.511823   -0.918721
     31          6           0       -0.341108   -0.970033   -1.036819
     32          6           0       -1.281364    0.220854   -1.254780
     33          1           0       -3.766623    0.521443   -3.984515
     34          1           0       -3.906956    2.250553   -3.522111
     35          1           0       -2.313308    1.463437   -3.524358
     36          1           0       -5.455237   -0.065819   -2.122625
     37          1           0       -5.163005    0.673490   -0.516676
     38          1           0       -5.528706    1.714785   -1.911670
     39          1           0       -2.749801   -0.972021   -2.344520
     40          1           0       -4.833714   -2.389366    2.998287
     41          1           0       -4.664312   -2.364251    1.206489
     42          1           0       -2.430167    0.154622    3.168667
     43          1           0       -2.757556    2.049517   -0.906422
     44          1           0        1.356049    2.774686    1.078661
     45          1           0        4.387851    2.369195    0.941544
     46          1           0        7.145262    0.329872    0.005135
     47          1           0        6.763541   -1.986351   -0.851225
     48          1           0        4.476264   -2.888518   -1.069806
     49          1           0        2.585085   -3.694212   -0.884548
     50          1           0        2.166815   -2.712529   -2.315047
     51          1           0        0.897065   -3.274027   -1.187927
     52          1           0        2.274510   -2.580714    1.303322
     53          1           0        1.476841   -0.253804   -1.934059
     54          1           0       -0.450254   -1.662662   -1.883534
     55          1           0       -0.623015   -1.521578   -0.125959
     56          1           0       -0.921276    0.797298   -2.122796
 ---------------------------------------------------------------------

 SCF Done:  E(RB-P86) =  -1564.73015270     A.U. after   13 cycles

 The electronic state is 1-A.
 Alpha  occ. eigenvalues --  -18.81175 -18.81066 -18.80041 -18.78594 -18.78486
 Alpha  occ. eigenvalues --  -18.77688 -18.76892 -18.76850 -14.04103 -14.03095
 Alpha  occ. eigenvalues --  -10.03532 -10.00286  -9.99632  -9.99534  -9.99182
 Alpha  occ. eigenvalues --   -9.98297  -9.98053  -9.97316  -9.94766  -9.92870
 Alpha  occ. eigenvalues --   -9.92581  -9.92518  -9.92294  -9.92252  -9.91873
 Alpha  occ. eigenvalues --   -9.91832  -9.91826  -9.91806  -9.90864  -9.90654
 Alpha  occ. eigenvalues --   -9.90523  -9.88965  -1.01818  -1.00529  -0.98689
 Alpha  occ. eigenvalues --   -0.97013  -0.96246  -0.95257  -0.94334  -0.93707
 Alpha  occ. eigenvalues --   -0.86430  -0.86019  -0.80296  -0.78550  -0.75413
 Alpha  occ. eigenvalues --   -0.72508  -0.71642  -0.70024  -0.68681  -0.66829
 Alpha  occ. eigenvalues --   -0.65586  -0.64847  -0.61387  -0.60470  -0.59452
 Alpha  occ. eigenvalues --   -0.58952  -0.57637  -0.57142  -0.55022  -0.54606
 Alpha  occ. eigenvalues --   -0.53442  -0.52457  -0.51698  -0.49407  -0.48548
 Alpha  occ. eigenvalues --   -0.47852  -0.47203  -0.46730  -0.45916  -0.45420
 Alpha  occ. eigenvalues --   -0.44422  -0.44062  -0.43379  -0.43255  -0.42679
 Alpha  occ. eigenvalues --   -0.41924  -0.41451  -0.40836  -0.40666  -0.40374
 Alpha  occ. eigenvalues --   -0.40085  -0.39834  -0.39258  -0.38425  -0.37909
 Alpha  occ. eigenvalues --   -0.37340  -0.37134  -0.36667  -0.36232  -0.35618
 Alpha  occ. eigenvalues --   -0.35431  -0.35096  -0.34970  -0.34751  -0.34304
 Alpha  occ. eigenvalues --   -0.34166  -0.33939  -0.33669  -0.33152  -0.32462
 Alpha  occ. eigenvalues --   -0.32135  -0.31427  -0.31082  -0.30685  -0.29850
 Alpha  occ. eigenvalues --   -0.28841  -0.27932  -0.27019  -0.25763  -0.24392
 Alpha  occ. eigenvalues --   -0.23907  -0.23350  -0.23166  -0.22881  -0.22039
 Alpha  occ. eigenvalues --   -0.21164  -0.20720
 Alpha virt. eigenvalues --   -0.11826  -0.09340  -0.07838  -0.05603  -0.03968
 Alpha virt. eigenvalues --    0.00958   0.02280   0.02347   0.03154   0.03319
 Alpha virt. eigenvalues --    0.03973   0.05147   0.05243   0.05489   0.06122

 Mulliken charges:
               1
     1  C   -0.310786
     2  N   -0.246535
     3  C   -0.314219
     4  C   -0.074124
     5  C    0.135994
     6  O   -0.375107
     7  C   -0.092297
     8  C    0.131014
     9  N   -0.293912
    10  O   -0.260533
    11  C    0.035132
    12  O   -0.328462
    13  C    0.052463
    14  O   -0.333749
    15  C    0.072109
    16  O   -0.207141
    17  C   -0.187795
    18  C    0.106367
    19  O   -0.461316
    20  C   -0.199779
    21  C    0.143712
    22  O   -0.278352
    23  C   -0.223182
    24  C   -0.084551
    25  C   -0.142274
    26  C    0.092236
    27  C   -0.013133
    28  C   -0.474470
    29  O   -0.329881
    30  C    0.154732
    31  C   -0.400046
    32  C   -0.394601
    33  H    0.145457
    34  H    0.168399
    35  H    0.162313
    36  H    0.145912
    37  H    0.174955
    38  H    0.167328
    39  H    0.218229
    40  H    0.298556
    41  H    0.302242
    42  H    0.282630
    43  H    0.297631
    44  H    0.296139
    45  H    0.309246
    46  H    0.147711
    47  H    0.146247
    48  H    0.150886
    49  H    0.176852
    50  H    0.169429
    51  H    0.184513
    52  H    0.309466
    53  H    0.221924
    54  H    0.179009
    55  H    0.201536
    56  H    0.245873
 Sum of Mulliken charges =  -0.00000

 Dipole moment (field-independent basis, Debye):
    X=             -3.4034    Y=             -9.6361    Z=             -6.7368  Tot=             12.2402
 Quadrupole moment (field-independent basis, Debye-Ang):
   XX=           -158.4955   YY=           -191.4380   ZZ=           -179.3859
   XY=            -14.0727   XZ=             -5.9072   YZ=            -15.1168

 Normal termination of Gaussian 16 at Tue Feb 23 05:41:03 2021.
