 Gaussian 16, Revision C.01,

 -------------------------------------------------------------
 #P BP86/TZVP EmpiricalDispersion=GD3 SCRF=(Solvent=Water) Opt
 -------------------------------------------------------------

 -------------------------------------
 Particle #NZNMSOFKMUBTKW-UHFFFAOYSA-N
 -------------------------------------
 Symbolic Z-matrix:
 Charge =  0 Multiplicity = 1

 SCF Done:  E(RB-P86) =  -424.612443042     A.U. after   13 cycles
 SCF Done:  E(RB-P86) =  -424.622768687     A.U. after   10 cycles
 SCF Done:  E(RB-P86) =  -424.623651720     A.U. after   10 cycles
 SCF Done:  E(RB-P86) =  -424.623749094     A.U. after    9 cycles
 SCF Done:  E(RB-P86) =  -424.623730950     A.U. after    9 cycles
 SCF Done:  E(RB-P86) =  -424.623756501     A.U. after    9 cycles
 SCF Done:  E(RB-P86) =  -424.623762058     A.U. after    8 cycles
 SCF Done:  E(RB-P86) =  -424.623762767     A.U. after    8 cycles
 SCF Done:  E(RB-P86) =  -424.623764286     A.U. after    9 cycles
 SCF Done:  E(RB-P86) =  -424.623765066     A.U. after    8 cycles
 SCF Done:  E(RB-P86) =  -424.623765327     A.U. after    8 cycles
 Optimization completed.
    -- Stationary point found.
 Normal termination of Gaussian 16 at Mon Feb 22 21:18:10 2021.
 Gaussian 16:  ES64L-G16RevC.01  3-Jul-2019

 ---------------------------------------------------------
 # BP86/TZVP SCRF=COSMORS geom=CHECKPOINT guess=CHECKPOINT
 ---------------------------------------------------------

 -------------------------------------------
 COSMO-file for #NZNMSOFKMUBTKW-UHFFFAOYSA-N
 -------------------------------------------
 Structure from the checkpoint file:  "NZNMSOFKMUBTKW-UHFFFAOYSA-N.chk"
 Charge =  0 Multiplicity = 1

                         Standard orientation:
 ---------------------------------------------------------------------
 Center     Atomic      Atomic             Coordinates (Angstroms)
 Number     Number       Type             X           Y           Z
 ---------------------------------------------------------------------
      1          8           0       -2.266981   -0.870045    0.887701
      2          6           0       -1.819441   -0.128852    0.024634
      3          8           0       -2.610512    0.735664   -0.676683
      4          6           0       -0.363504   -0.002345   -0.369517
      5          6           0        0.416702   -1.301750   -0.110244
      6          6           0        1.901124   -1.133404   -0.469211
      7          6           0        2.532685    0.041950    0.293502
      8          6           0        1.752645    1.343039    0.049052
      9          6           0        0.267204    1.185437    0.407941
     10          1           0       -3.525218    0.642799   -0.332462
     11          1           0       -0.327053    0.242780   -1.444976
     12          1           0       -0.030909   -2.128083   -0.685165
     13          1           0        0.318021   -1.565071    0.956435
     14          1           0        2.444007   -2.067835   -0.254418
     15          1           0        1.995670   -0.954886   -1.555845
     16          1           0        3.586899    0.168334   -0.001624
     17          1           0        2.529243   -0.184364    1.375354
     18          1           0        2.186875    2.170116    0.633697
     19          1           0        1.838198    1.625973   -1.015648
     20          1           0        0.166194    0.989212    1.490076
     21          1           0       -0.286476    2.111620    0.189481
 ---------------------------------------------------------------------

 SCF Done:  E(RB-P86) =  -424.607539122     A.U. after   10 cycles

 The electronic state is 1-A.
 Alpha  occ. eigenvalues --  -18.81917 -18.76905 -10.02933  -9.91481  -9.89941
 Alpha  occ. eigenvalues --   -9.89336  -9.89081  -9.88950  -9.88789  -1.02017
 Alpha  occ. eigenvalues --   -0.93792  -0.76406  -0.69159  -0.67285  -0.59853
 Alpha  occ. eigenvalues --   -0.55077  -0.53056  -0.49494  -0.45487  -0.44167
 Alpha  occ. eigenvalues --   -0.41976  -0.40808  -0.39011  -0.38643  -0.37097
 Alpha  occ. eigenvalues --   -0.34219  -0.33781  -0.33317  -0.30723  -0.30170
 Alpha  occ. eigenvalues --   -0.29195  -0.27986  -0.27377  -0.26553  -0.24328
 Alpha virt. eigenvalues --   -0.04698   0.02108   0.03759   0.04312   0.05648
 Alpha virt. eigenvalues --    0.06553   0.08609   0.09549   0.09599   0.10189
 Alpha virt. eigenvalues --    0.10581   0.10998   0.11422   0.12201   0.14567

 Mulliken charges:
               1
     1  O   -0.360479
     2  C    0.205902
     3  O   -0.277306
     4  C   -0.162885
     5  C   -0.290346
     6  C   -0.266264
     7  C   -0.267239
     8  C   -0.255527
     9  C   -0.283650
    10  H    0.327539
    11  H    0.180580
    12  H    0.156623
    13  H    0.136972
    14  H    0.152008
    15  H    0.134164
    16  H    0.149175
    17  H    0.128674
    18  H    0.154248
    19  H    0.134005
    20  H    0.145217
    21  H    0.158588
 Sum of Mulliken charges =  -0.00000

 Dipole moment (field-independent basis, Debye):
    X=              1.1147    Y=              1.6309    Z=             -1.4617  Tot=              2.4575
 Quadrupole moment (field-independent basis, Debye-Ang):
   XX=            -51.5328   YY=            -57.4504   ZZ=            -57.9358
   XY=             -4.4608   XZ=              3.2831   YZ=              3.3085

 Normal termination of Gaussian 16 at Mon Feb 22 21:18:21 2021.
