 Gaussian 16, Revision C.01,

 -------------------------------------------------------------
 #P BP86/TZVP EmpiricalDispersion=GD3 SCRF=(Solvent=Water) Opt
 -------------------------------------------------------------

 -------------------------------------
 Particle #OEYIOHPDSNJKLS-UHFFFAOYSA-N
 -------------------------------------
 Symbolic Z-matrix:
 Charge =  1 Multiplicity = 1

 SCF Done:  E(RB-P86) =  -328.880679375     A.U. after   11 cycles
 SCF Done:  E(RB-P86) =  -328.888344834     A.U. after   10 cycles
 SCF Done:  E(RB-P86) =  -328.888932378     A.U. after    9 cycles
 SCF Done:  E(RB-P86) =  -328.889066881     A.U. after    9 cycles
 SCF Done:  E(RB-P86) =  -328.889076018     A.U. after    8 cycles
 SCF Done:  E(RB-P86) =  -328.889076676     A.U. after    7 cycles
 Optimization completed.
    -- Stationary point found.
 Normal termination of Gaussian 16 at Tue Feb 23 00:12:22 2021.
 Gaussian 16:  ES64L-G16RevC.01  3-Jul-2019

 ---------------------------------------------------------
 # BP86/TZVP SCRF=COSMORS geom=CHECKPOINT guess=CHECKPOINT
 ---------------------------------------------------------

 -------------------------------------------
 COSMO-file for #OEYIOHPDSNJKLS-UHFFFAOYSA-N
 -------------------------------------------
 Structure from the checkpoint file:  "OEYIOHPDSNJKLS-UHFFFAOYSA-N.chk"
 Charge =  1 Multiplicity = 1

                         Standard orientation:
 ---------------------------------------------------------------------
 Center     Atomic      Atomic             Coordinates (Angstroms)
 Number     Number       Type             X           Y           Z
 ---------------------------------------------------------------------
      1          6           0       -1.124546   -0.815406   -1.234563
      2          7           0       -0.878803    0.022466    0.000000
      3          6           0       -1.846344    1.186104   -0.000001
      4          6           0       -1.124549   -0.815407    1.234562
      5          6           0        0.530446    0.599816    0.000002
      6          6           0        1.664097   -0.424533    0.000000
      7          8           0        2.852215    0.381022   -0.000000
      8          1           0       -0.490791   -1.706450   -1.200713
      9          1           0       -0.891250   -0.214671   -2.120351
     10          1           0       -2.178725   -1.112723   -1.243803
     11          1           0       -2.867051    0.789461   -0.000003
     12          1           0       -1.672746    1.787406    0.898922
     13          1           0       -1.672743    1.787407   -0.898921
     14          1           0       -0.490795   -1.706451    1.200712
     15          1           0       -0.891255   -0.214673    2.120351
     16          1           0       -2.178729   -1.112724    1.243799
     17          1           0        0.609406    1.234835    0.891968
     18          1           0        0.609407    1.234839   -0.891960
     19          1           0        1.619200   -1.066232    0.896310
     20          1           0        1.619199   -1.066230   -0.896311
     21          1           0        3.616152   -0.222674    0.000000
 ---------------------------------------------------------------------

 SCF Done:  E(RB-P86) =  -328.881471833     A.U. after   10 cycles

 The electronic state is 1-A.
 Alpha  occ. eigenvalues --  -18.78228 -14.14046  -9.95809  -9.95594  -9.94649
 Alpha  occ. eigenvalues --   -9.94644  -9.94630  -0.94982  -0.93809  -0.71201
 Alpha  occ. eigenvalues --   -0.68332  -0.68292  -0.61274  -0.55363  -0.50028
 Alpha  occ. eigenvalues --   -0.47946  -0.46622  -0.44616  -0.43485  -0.39972
 Alpha  occ. eigenvalues --   -0.38367  -0.36621  -0.36193  -0.36089  -0.36043
 Alpha  occ. eigenvalues --   -0.35936  -0.34267  -0.31160  -0.24466
 Alpha virt. eigenvalues --   -0.00576   0.01563   0.04066   0.05118   0.05134
 Alpha virt. eigenvalues --    0.05572   0.05898   0.06029   0.07975   0.09044
 Alpha virt. eigenvalues --    0.10083   0.10347   0.11111   0.12102   0.12930

 Mulliken charges:
               1
     1  C   -0.305999
     2  N   -0.204245
     3  C   -0.274740
     4  C   -0.305611
     5  C   -0.133803
     6  C   -0.208746
     7  O   -0.422144
     8  H    0.204010
     9  H    0.200269
    10  H    0.198746
    11  H    0.198672
    12  H    0.196059
    13  H    0.195988
    14  H    0.203976
    15  H    0.200546
    16  H    0.198412
    17  H    0.199382
    18  H    0.199395
    19  H    0.168299
    20  H    0.168249
    21  H    0.323285
 Sum of Mulliken charges =   1.00000

 Dipole moment (field-independent basis, Debye):
    X=             -4.0223    Y=             -2.0727    Z=              0.0023  Tot=              4.5249
 Quadrupole moment (field-independent basis, Debye-Ang):
   XX=            -29.5834   YY=            -38.3238   ZZ=            -38.0329
   XY=             -6.6723   XZ=             -0.0016   YZ=             -0.0009

 Normal termination of Gaussian 16 at Tue Feb 23 00:12:32 2021.
