 Gaussian 16, Revision C.01,

 -------------------------------------------------------------
 #P BP86/TZVP EmpiricalDispersion=GD3 SCRF=(Solvent=Water) Opt
 -------------------------------------------------------------

 -------------------------------------
 Particle #OIPILFWXSMYKGL-UHFFFAOYSA-N
 -------------------------------------
 Symbolic Z-matrix:
 Charge =  1 Multiplicity = 1

 SCF Done:  E(RB-P86) =  -481.596406737     A.U. after   13 cycles
 SCF Done:  E(RB-P86) =  -481.610755422     A.U. after   11 cycles
 SCF Done:  E(RB-P86) =  -481.612754485     A.U. after   11 cycles
 SCF Done:  E(RB-P86) =  -481.613250698     A.U. after   10 cycles
 SCF Done:  E(RB-P86) =  -481.613340174     A.U. after    9 cycles
 SCF Done:  E(RB-P86) =  -481.613474062     A.U. after    9 cycles
 SCF Done:  E(RB-P86) =  -481.613478479     A.U. after    9 cycles
 SCF Done:  E(RB-P86) =  -481.613479040     A.U. after    8 cycles
 SCF Done:  E(RB-P86) =  -481.613477952     A.U. after    8 cycles
 SCF Done:  E(RB-P86) =  -481.613480349     A.U. after    9 cycles
 SCF Done:  E(RB-P86) =  -481.613485039     A.U. after    8 cycles
 SCF Done:  E(RB-P86) =  -481.613485782     A.U. after    8 cycles
 SCF Done:  E(RB-P86) =  -481.613487298     A.U. after    9 cycles
 SCF Done:  E(RB-P86) =  -481.613488576     A.U. after    8 cycles
 SCF Done:  E(RB-P86) =  -481.613488426     A.U. after    8 cycles
 SCF Done:  E(RB-P86) =  -481.613489121     A.U. after    8 cycles
 SCF Done:  E(RB-P86) =  -481.613489013     A.U. after    8 cycles
 SCF Done:  E(RB-P86) =  -481.613489117     A.U. after    7 cycles
 SCF Done:  E(RB-P86) =  -481.613489175     A.U. after    6 cycles
 Optimization completed.
    -- Stationary point found.
 Normal termination of Gaussian 16 at Tue Feb 23 00:19:31 2021.
 Gaussian 16:  ES64L-G16RevC.01  3-Jul-2019

 ---------------------------------------------------------
 # BP86/TZVP SCRF=COSMORS geom=CHECKPOINT guess=CHECKPOINT
 ---------------------------------------------------------

 -------------------------------------------
 COSMO-file for #OIPILFWXSMYKGL-UHFFFAOYSA-N
 -------------------------------------------
 Structure from the checkpoint file:  "OIPILFWXSMYKGL-UHFFFAOYSA-N.chk"
 Charge =  1 Multiplicity = 1

                         Standard orientation:
 ---------------------------------------------------------------------
 Center     Atomic      Atomic             Coordinates (Angstroms)
 Number     Number       Type             X           Y           Z
 ---------------------------------------------------------------------
      1          6           0        3.852887    0.107052    0.531746
      2          6           0        2.501784   -0.200868   -0.051057
      3          8           0        2.111778   -1.288770   -0.439621
      4          8           0        1.719002    0.928292   -0.082272
      5          6           0        0.383402    0.763953   -0.621833
      6          6           0       -0.510018    0.245002    0.509106
      7          7           0       -1.945867   -0.061842    0.100793
      8          6           0       -2.706578   -0.447733    1.351216
      9          6           0       -1.992890   -1.218230   -0.872506
     10          6           0       -2.603240    1.150557   -0.517291
     11          1           0        4.270920    1.018050    0.083215
     12          1           0        3.745526    0.286540    1.612237
     13          1           0        4.524448   -0.742627    0.370660
     14          1           0        0.090911    1.765140   -0.955878
     15          1           0        0.412943    0.075363   -1.476725
     16          1           0       -0.096115   -0.689334    0.908145
     17          1           0       -0.561175    0.988484    1.314625
     18          1           0       -3.735000   -0.696989    1.068610
     19          1           0       -2.217530   -1.315408    1.807030
     20          1           0       -2.699614    0.401382    2.042884
     21          1           0       -1.489425   -0.935150   -1.801417
     22          1           0       -3.043163   -1.449996   -1.079167
     23          1           0       -1.494400   -2.079908   -0.416050
     24          1           0       -2.124083    1.376411   -1.475019
     25          1           0       -2.500321    1.995798    0.171741
     26          1           0       -3.661191    0.920558   -0.681593
 ---------------------------------------------------------------------

 SCF Done:  E(RB-P86) =  -481.599928962     A.U. after   11 cycles

 The electronic state is 1-A.
 Alpha  occ. eigenvalues --  -18.83092 -18.77504 -14.14256 -10.03681  -9.97053
 Alpha  occ. eigenvalues --   -9.96171  -9.94777  -9.94731  -9.94723  -9.90711
 Alpha  occ. eigenvalues --   -1.02822  -0.94989  -0.94154  -0.73402  -0.68695
 Alpha  occ. eigenvalues --   -0.68470  -0.68371  -0.62784  -0.56898  -0.52361
 Alpha  occ. eigenvalues --   -0.48962  -0.48246  -0.46790  -0.46044  -0.44341
 Alpha  occ. eigenvalues --   -0.42852  -0.41190  -0.39965  -0.38185  -0.37378
 Alpha  occ. eigenvalues --   -0.36660  -0.36387  -0.36189  -0.36116  -0.36049
 Alpha  occ. eigenvalues --   -0.35088  -0.33730  -0.31978  -0.28406  -0.25389
 Alpha virt. eigenvalues --   -0.05165  -0.00787   0.02026   0.03922   0.04585
 Alpha virt. eigenvalues --    0.05118   0.05229   0.05598   0.05894   0.06896
 Alpha virt. eigenvalues --    0.08210   0.08369   0.09680   0.10117   0.10655

 Mulliken charges:
               1
     1  C   -0.437021
     2  C    0.284777
     3  O   -0.357853
     4  O   -0.188693
     5  C   -0.192448
     6  C   -0.215377
     7  N   -0.211736
     8  C   -0.275174
     9  C   -0.290362
    10  C   -0.304424
    11  H    0.175409
    12  H    0.186826
    13  H    0.169304
    14  H    0.206390
    15  H    0.201637
    16  H    0.235721
    17  H    0.208804
    18  H    0.200092
    19  H    0.195638
    20  H    0.197409
    21  H    0.200668
    22  H    0.199457
    23  H    0.198174
    24  H    0.208120
    25  H    0.203988
    26  H    0.200674
 Sum of Mulliken charges =   1.00000

 Dipole moment (field-independent basis, Debye):
    X=             -8.9963    Y=              1.9287    Z=              1.2173  Tot=              9.2809
 Quadrupole moment (field-independent basis, Debye-Ang):
   XX=            -26.7346   YY=            -59.0614   ZZ=            -53.0831
   XY=              4.2620   XZ=              2.3177   YZ=             -2.2227

 Normal termination of Gaussian 16 at Tue Feb 23 00:19:47 2021.
