 Gaussian 16, Revision C.01,

 -------------------------------------------------------------
 #P BP86/TZVP EmpiricalDispersion=GD3 SCRF=(Solvent=Water) Opt
 -------------------------------------------------------------

 -------------------------------------
 Particle #OKIZCWYLBDKLSU-UHFFFAOYSA-M
 -------------------------------------
 Symbolic Z-matrix:
 Charge =  0 Multiplicity = 1

 SCF Done:  E(RB-P86) =  -674.751111675     A.U. after   11 cycles
 SCF Done:  E(RB-P86) =  -674.757023894     A.U. after    9 cycles
 SCF Done:  E(RB-P86) =  -674.758234702     A.U. after    9 cycles
 SCF Done:  E(RB-P86) =  -674.758737588     A.U. after    9 cycles
 SCF Done:  E(RB-P86) =  -674.759026419     A.U. after    9 cycles
 SCF Done:  E(RB-P86) =  -674.759132104     A.U. after    8 cycles
 SCF Done:  E(RB-P86) =  -674.759230117     A.U. after    7 cycles
 SCF Done:  E(RB-P86) =  -674.759218184     A.U. after    7 cycles
 SCF Done:  E(RB-P86) =  -674.759242445     A.U. after    8 cycles
 SCF Done:  E(RB-P86) =  -674.759253185     A.U. after    8 cycles
 SCF Done:  E(RB-P86) =  -674.759263039     A.U. after    7 cycles
 SCF Done:  E(RB-P86) =  -674.759248362     A.U. after    7 cycles
 SCF Done:  E(RB-P86) =  -674.758187250     A.U. after   10 cycles
 SCF Done:  E(RB-P86) =  -674.759137887     A.U. after    9 cycles
 SCF Done:  E(RB-P86) =  -674.759249372     A.U. after    6 cycles
 SCF Done:  E(RB-P86) =  -674.759027809     A.U. after    8 cycles
 SCF Done:  E(RB-P86) =  -674.758388505     A.U. after    9 cycles
 SCF Done:  E(RB-P86) =  -674.758200378     A.U. after    9 cycles
 SCF Done:  E(RB-P86) =  -674.759262983     A.U. after    6 cycles
 Optimization completed.
    -- Stationary point found.
 Normal termination of Gaussian 16 at Sat Aug 21 09:40:58 2021.
 Gaussian 16:  ES64L-G16RevC.01  3-Jul-2019

 ---------------------------------------------------------
 # BP86/TZVP SCRF=COSMORS geom=CHECKPOINT guess=CHECKPOINT
 ---------------------------------------------------------

 -------------------------------------------
 COSMO-file for #OKIZCWYLBDKLSU-UHFFFAOYSA-M
 -------------------------------------------
 Structure from the checkpoint file:  "OKIZCWYLBDKLSU-UHFFFAOYSA-M.chk"
 Charge =  0 Multiplicity = 1

                         Standard orientation:
 ---------------------------------------------------------------------
 Center     Atomic      Atomic             Coordinates (Angstroms)
 Number     Number       Type             X           Y           Z
 ---------------------------------------------------------------------
      1          6           0       -0.588196   -0.096583   -1.417810
      2          7           0       -1.102286   -0.000272    0.000118
      3          6           0       -0.586770   -1.179336    0.793188
      4          6           0       -0.589522    1.276934    0.625321
      5          6           0       -2.608889   -0.001255   -0.000379
      6         17           0        2.769031    0.000150   -0.000184
      7          1           0       -0.960851   -1.027260   -1.860444
      8          1           0        0.510068   -0.093911   -1.373731
      9          1           0       -0.960297    0.766149   -1.982055
     10          1           0       -0.959231   -1.097221    1.820516
     11          1           0       -0.957795   -2.100146    0.328933
     12          1           0        0.511453   -1.141188    0.768518
     13          1           0       -0.963605    2.124965    0.040573
     14          1           0        0.508699    1.239071    0.605181
     15          1           0       -0.961475    1.334164    1.654585
     16          1           0       -2.961168    0.858705   -0.580965
     17          1           0       -2.961236   -0.933950   -0.455243
     18          1           0       -2.961831    0.071416    1.034513
 ---------------------------------------------------------------------

 SCF Done:  E(RB-P86) =  -674.751468698     A.U. after    9 cycles

 The electronic state is 1-A.
 Alpha  occ. eigenvalues -- -100.64547 -14.13166  -9.94204  -9.93780  -9.93774
 Alpha  occ. eigenvalues --   -9.93774  -9.08422  -6.90238  -6.90234  -6.90234
 Alpha  occ. eigenvalues --   -0.93326  -0.67833  -0.67479  -0.67475  -0.63476
 Alpha  occ. eigenvalues --   -0.56416  -0.47066  -0.46741  -0.46738  -0.39412
 Alpha  occ. eigenvalues --   -0.39407  -0.35791  -0.35558  -0.35555  -0.35329
 Alpha  occ. eigenvalues --   -0.35325  -0.35244  -0.21493  -0.21490  -0.21262
 Alpha virt. eigenvalues --    0.00659   0.03665   0.05661   0.05669   0.06369
 Alpha virt. eigenvalues --    0.07408   0.07411   0.09332   0.10504   0.10505
 Alpha virt. eigenvalues --    0.10712   0.11843   0.11851   0.15095   0.15148

 Mulliken charges:
               1
     1  C   -0.262552
     2  N   -0.200306
     3  C   -0.262454
     4  C   -0.262679
     5  C   -0.284234
     6  Cl  -0.880578
     7  H    0.189874
     8  H    0.145978
     9  H    0.189802
    10  H    0.189902
    11  H    0.189763
    12  H    0.145787
    13  H    0.189733
    14  H    0.146137
    15  H    0.189974
    16  H    0.191887
    17  H    0.191941
    18  H    0.192024
 Sum of Mulliken charges =   0.00000

 Dipole moment (field-independent basis, Debye):
    X=            -17.4373    Y=             -0.0007    Z=              0.0022  Tot=             17.4373
 Quadrupole moment (field-independent basis, Debye-Ang):
   XX=            -71.6315   YY=            -43.2800   ZZ=            -43.2796
   XY=             -0.0003   XZ=              0.0011   YZ=              0.0007

 Normal termination of Gaussian 16 at Sat Aug 21 09:41:07 2021.
