 Gaussian 16, Revision C.01,

 -------------------------------------------------------------
 #P BP86/TZVP EmpiricalDispersion=GD3 SCRF=(Solvent=Water) Opt
 -------------------------------------------------------------

 -------------------------------------
 Particle #OYHQOLUKZRVURQ-HZJYTTRNSA-N
 -------------------------------------
 Symbolic Z-matrix:
 Charge =  0 Multiplicity = 1

 SCF Done:  E(RB-P86) =  -855.907113361     A.U. after   14 cycles
 SCF Done:  E(RB-P86) =  -855.946241393     A.U. after   12 cycles
 SCF Done:  E(RB-P86) =  -855.956512101     A.U. after   11 cycles
 SCF Done:  E(RB-P86) =  -855.957534858     A.U. after   11 cycles
 SCF Done:  E(RB-P86) =  -855.957912476     A.U. after   10 cycles
 SCF Done:  E(RB-P86) =  -855.958101573     A.U. after   10 cycles
 SCF Done:  E(RB-P86) =  -855.958219587     A.U. after   10 cycles
 SCF Done:  E(RB-P86) =  -855.958305895     A.U. after    9 cycles
 SCF Done:  E(RB-P86) =  -855.958367072     A.U. after    9 cycles
 SCF Done:  E(RB-P86) =  -855.958399608     A.U. after    9 cycles
 SCF Done:  E(RB-P86) =  -855.959317895     A.U. after    8 cycles
 SCF Done:  E(RB-P86) =  -855.959318514     A.U. after    8 cycles
 SCF Done:  E(RB-P86) =  -855.959318720     A.U. after    8 cycles
 SCF Done:  E(RB-P86) =  -855.959318934     A.U. after    8 cycles
 SCF Done:  E(RB-P86) =  -855.959318897     A.U. after    8 cycles
 SCF Done:  E(RB-P86) =  -855.959318207     A.U. after    9 cycles
 SCF Done:  E(RB-P86) =  -855.959319251     A.U. after    9 cycles
 SCF Done:  E(RB-P86) =  -855.959319323     A.U. after    6 cycles
 SCF Done:  E(RB-P86) =  -855.959319272     A.U. after    6 cycles
 Optimization completed.
    -- Stationary point found.
 Normal termination of Gaussian 16 at Mon Feb 22 22:03:11 2021.
 Gaussian 16:  ES64L-G16RevC.01  3-Jul-2019

 ---------------------------------------------------------
 # BP86/TZVP SCRF=COSMORS geom=CHECKPOINT guess=CHECKPOINT
 ---------------------------------------------------------

 -------------------------------------------
 COSMO-file for #OYHQOLUKZRVURQ-HZJYTTRNSA-N
 -------------------------------------------
 Structure from the checkpoint file:  "OYHQOLUKZRVURQ-HZJYTTRNSA-N.chk"
 Charge =  0 Multiplicity = 1

                         Standard orientation:
 ---------------------------------------------------------------------
 Center     Atomic      Atomic             Coordinates (Angstroms)
 Number     Number       Type             X           Y           Z
 ---------------------------------------------------------------------
      1          6           0       -4.396085    4.542977   -0.989440
      2          6           0       -3.441577    3.407285   -0.600170
      3          6           0       -4.074542    2.394096    0.363192
      4          6           0       -3.127447    1.251919    0.748382
      5          6           0       -3.772685    0.226394    1.703839
      6          6           0       -2.820892   -0.872889    2.087383
      7          6           0       -2.849591   -2.138174    1.638304
      8          6           0       -3.878875   -2.713232    0.674863
      9          6           0       -3.963526   -2.016417   -0.676353
     10          6           0       -2.953230   -1.880753   -1.550628
     11          6           0       -1.540533   -2.357643   -1.355375
     12          6           0       -0.566721   -1.196418   -1.065970
     13          6           0        0.883960   -1.658184   -0.886480
     14          6           0        1.850326   -0.504123   -0.590756
     15          6           0        3.302804   -0.958691   -0.398955
     16          6           0        4.262212    0.203911   -0.115184
     17          6           0        5.705441   -0.265754    0.073679
     18          6           0        6.681130    0.855758    0.346693
     19          8           0        6.411840    2.045283    0.411981
     20          8           0        7.949975    0.381119    0.518832
     21          1           0       -3.919599    5.256015   -1.679858
     22          1           0       -5.298341    4.148108   -1.484142
     23          1           0       -4.724584    5.104936   -0.100059
     24          1           0       -2.532537    3.828697   -0.135350
     25          1           0       -3.103425    2.878046   -1.508749
     26          1           0       -4.984490    1.970382   -0.100679
     27          1           0       -4.411821    2.918580    1.276289
     28          1           0       -2.216319    1.666277    1.215990
     29          1           0       -2.800151    0.720225   -0.160726
     30          1           0       -4.673504   -0.190637    1.223816
     31          1           0       -4.113776    0.754559    2.613037
     32          1           0       -2.009744   -0.585709    2.767632
     33          1           0       -2.067364   -2.825393    1.977942
     34          1           0       -4.876424   -2.684411    1.144528
     35          1           0       -3.654108   -3.782212    0.522282
     36          1           0       -4.936061   -1.586909   -0.939380
     37          1           0       -3.148620   -1.338155   -2.483666
     38          1           0       -1.487197   -3.083366   -0.526998
     39          1           0       -1.200101   -2.887812   -2.263650
     40          1           0       -0.622715   -0.457966   -1.885701
     41          1           0       -0.905807   -0.679108   -0.152998
     42          1           0        1.216868   -2.191690   -1.795653
     43          1           0        0.931067   -2.394505   -0.063215
     44          1           0        1.804047    0.230403   -1.415391
     45          1           0        1.512542    0.030703    0.315583
     46          1           0        3.351193   -1.686839    0.431025
     47          1           0        3.638548   -1.499602   -1.302359
     48          1           0        3.933662    0.745909    0.787195
     49          1           0        4.220583    0.930578   -0.943482
     50          1           0        6.066213   -0.808150   -0.817193
     51          1           0        5.784067   -0.985192    0.906657
     52          1           0        8.532368    1.152655    0.688637
 ---------------------------------------------------------------------

 SCF Done:  E(RB-P86) =  -855.908882120     A.U. after   11 cycles

 The electronic state is 1-A.
 Alpha  occ. eigenvalues --  -18.81847 -18.76990 -10.03213  -9.91015  -9.89805
 Alpha  occ. eigenvalues --   -9.89454  -9.89243  -9.89243  -9.89078  -9.89077
 Alpha  occ. eigenvalues --   -9.88982  -9.88982  -9.88901  -9.88744  -9.88676
 Alpha  occ. eigenvalues --   -9.88656  -9.88646  -9.88589  -9.88527  -9.88067
 Alpha  occ. eigenvalues --   -1.02056  -0.93885  -0.74713  -0.73885  -0.72891
 Alpha  occ. eigenvalues --   -0.71634  -0.70114  -0.68076  -0.66275  -0.63739
 Alpha  occ. eigenvalues --   -0.61609  -0.59277  -0.57312  -0.54046  -0.53575
 Alpha  occ. eigenvalues --   -0.51633  -0.51464  -0.51217  -0.48381  -0.45640
 Alpha  occ. eigenvalues --   -0.44975  -0.44228  -0.43932  -0.43389  -0.42827
 Alpha  occ. eigenvalues --   -0.41632  -0.41372  -0.39166  -0.38720  -0.37752
 Alpha  occ. eigenvalues --   -0.37564  -0.37329  -0.36440  -0.36127  -0.36040
 Alpha  occ. eigenvalues --   -0.35199  -0.33991  -0.33766  -0.33431  -0.32680
 Alpha  occ. eigenvalues --   -0.31868  -0.31751  -0.30894  -0.30231  -0.29890
 Alpha  occ. eigenvalues --   -0.29463  -0.29129  -0.28842  -0.28602  -0.28400
 Alpha  occ. eigenvalues --   -0.28073  -0.27948  -0.27615  -0.27595  -0.26747
 Alpha  occ. eigenvalues --   -0.24808  -0.22228  -0.20635
 Alpha virt. eigenvalues --   -0.04546  -0.02721  -0.02342   0.01970   0.02260
 Alpha virt. eigenvalues --    0.02678   0.03522   0.03791   0.04403   0.04652
 Alpha virt. eigenvalues --    0.05638   0.05853   0.06159   0.07013   0.07395

 Mulliken charges:
               1
     1  C   -0.419234
     2  C   -0.231773
     3  C   -0.272778
     4  C   -0.288521
     5  C   -0.244978
     6  C   -0.170586
     7  C   -0.180147
     8  C   -0.328971
     9  C   -0.180610
    10  C   -0.168163
    11  C   -0.242707
    12  C   -0.296231
    13  C   -0.268605
    14  C   -0.251459
    15  C   -0.267668
    16  C   -0.263313
    17  C   -0.265205
    18  C    0.203059
    19  O   -0.364226
    20  O   -0.286724
    21  H    0.144816
    22  H    0.131902
    23  H    0.132089
    24  H    0.127713
    25  H    0.129285
    26  H    0.123830
    27  H    0.127287
    28  H    0.140750
    29  H    0.142249
    30  H    0.148172
    31  H    0.151704
    32  H    0.148922
    33  H    0.150362
    34  H    0.173416
    35  H    0.173293
    36  H    0.150136
    37  H    0.148798
    38  H    0.148480
    39  H    0.151786
    40  H    0.142823
    41  H    0.145127
    42  H    0.130749
    43  H    0.128013
    44  H    0.129121
    45  H    0.131101
    46  H    0.131766
    47  H    0.132625
    48  H    0.139029
    49  H    0.138714
    50  H    0.182623
    51  H    0.182282
    52  H    0.329877
 Sum of Mulliken charges =  -0.00000

 Dipole moment (field-independent basis, Debye):
    X=              0.7162    Y=             -2.0069    Z=             -0.2029  Tot=              2.1405
 Quadrupole moment (field-independent basis, Debye-Ang):
   XX=           -117.7875   YY=           -135.7986   ZZ=           -127.5369
   XY=            -10.6974   XZ=              0.3708   YZ=             -0.0899

 Normal termination of Gaussian 16 at Mon Feb 22 22:04:19 2021.
