 Gaussian 16, Revision C.01,

 -------------------------------------------------------------
 #P BP86/TZVP EmpiricalDispersion=GD3 SCRF=(Solvent=Water) Opt
 -------------------------------------------------------------

 -------------------------------------
 Particle #PEDCQBHIVMGVHV-UHFFFAOYSA-N
 -------------------------------------
 Symbolic Z-matrix:
 Charge =  0 Multiplicity = 1

 SCF Done:  E(RB-P86) =  -344.933509068     A.U. after   12 cycles
 SCF Done:  E(RB-P86) =  -344.938328563     A.U. after   10 cycles
 SCF Done:  E(RB-P86) =  -344.938949821     A.U. after    9 cycles
 SCF Done:  E(RB-P86) =  -344.939147198     A.U. after   10 cycles
 SCF Done:  E(RB-P86) =  -344.939313005     A.U. after    9 cycles
 SCF Done:  E(RB-P86) =  -344.939407713     A.U. after    9 cycles
 SCF Done:  E(RB-P86) =  -344.939480979     A.U. after    9 cycles
 SCF Done:  E(RB-P86) =  -344.939501892     A.U. after    9 cycles
 SCF Done:  E(RB-P86) =  -344.939517771     A.U. after    9 cycles
 SCF Done:  E(RB-P86) =  -344.939521335     A.U. after    8 cycles
 SCF Done:  E(RB-P86) =  -344.939521825     A.U. after    7 cycles
 Optimization completed.
    -- Stationary point found.
 Normal termination of Gaussian 16 at Mon Feb 22 21:17:59 2021.
 Gaussian 16:  ES64L-G16RevC.01  3-Jul-2019

 ---------------------------------------------------------
 # BP86/TZVP SCRF=COSMORS geom=CHECKPOINT guess=CHECKPOINT
 ---------------------------------------------------------

 -------------------------------------------
 COSMO-file for #PEDCQBHIVMGVHV-UHFFFAOYSA-N
 -------------------------------------------
 Structure from the checkpoint file:  "PEDCQBHIVMGVHV-UHFFFAOYSA-N.chk"
 Charge =  0 Multiplicity = 1

                         Standard orientation:
 ---------------------------------------------------------------------
 Center     Atomic      Atomic             Coordinates (Angstroms)
 Number     Number       Type             X           Y           Z
 ---------------------------------------------------------------------
      1          8           0        2.353159   -0.022963   -0.309813
      2          6           0        1.205554   -0.761148    0.166378
      3          6           0       -0.024819    0.054813   -0.230637
      4          8           0        0.084983    1.392455    0.291496
      5          6           0       -1.299199   -0.580359    0.295249
      6          8           0       -2.426768    0.050320   -0.341712
      7          1           0        3.124789   -0.285389    0.220731
      8          1           0        1.164417   -1.764138   -0.294608
      9          1           0        1.239146   -0.870444    1.264988
     10          1           0       -0.081324    0.085753   -1.338130
     11          1           0        1.017267    1.645661    0.132482
     12          1           0       -1.276059   -1.664026    0.072177
     13          1           0       -1.335633   -0.450025    1.392874
     14          1           0       -3.232813   -0.335718    0.043778
 ---------------------------------------------------------------------

 SCF Done:  E(RB-P86) =  -344.937732654     A.U. after   10 cycles

 The electronic state is 1-A.
 Alpha  occ. eigenvalues --  -18.78046 -18.77350 -18.77086  -9.95036  -9.94627
 Alpha  occ. eigenvalues --   -9.94449  -0.95459  -0.93796  -0.92423  -0.70190
 Alpha  occ. eigenvalues --   -0.61373  -0.53316  -0.48245  -0.46673  -0.45864
 Alpha  occ. eigenvalues --   -0.41657  -0.38441  -0.37460  -0.35765  -0.31805
 Alpha  occ. eigenvalues --   -0.31487  -0.29304  -0.24840  -0.23936  -0.23233
 Alpha virt. eigenvalues --    0.01245   0.02835   0.04219   0.05575   0.07746
 Alpha virt. eigenvalues --    0.09104   0.10463   0.11848   0.13242   0.14161
 Alpha virt. eigenvalues --    0.15396   0.16081   0.17066   0.22905   0.24531

 Mulliken charges:
               1
     1  O   -0.446396
     2  C   -0.209033
     3  C    0.025297
     4  O   -0.424652
     5  C   -0.165192
     6  O   -0.430204
     7  H    0.326908
     8  H    0.143760
     9  H    0.153216
    10  H    0.136387
    11  H    0.297030
    12  H    0.141396
    13  H    0.135860
    14  H    0.315621
 Sum of Mulliken charges =  -0.00000

 Dipole moment (field-independent basis, Debye):
    X=              1.7266    Y=             -4.3877    Z=              2.3018  Tot=              5.2470
 Quadrupole moment (field-independent basis, Debye-Ang):
   XX=            -26.8248   YY=            -37.6867   ZZ=            -38.5080
   XY=              3.8322   XZ=              0.7254   YZ=             -1.4392

 Normal termination of Gaussian 16 at Mon Feb 22 21:18:05 2021.
