 Gaussian 16, Revision C.01,

 -------------------------------------------------------------
 #P BP86/TZVP EmpiricalDispersion=GD3 SCRF=(Solvent=Water) Opt
 -------------------------------------------------------------

 -------------------------------------
 Particle #POKOASTYJWUQJG-UHFFFAOYSA-M
 -------------------------------------
 Symbolic Z-matrix:
 Charge =  0 Multiplicity = 1

 SCF Done:  E(RB-P86) =  -866.554774062     A.U. after   13 cycles
 SCF Done:  E(RB-P86) =  -866.561996731     A.U. after   11 cycles
 SCF Done:  E(RB-P86) =  -866.564308847     A.U. after   11 cycles
 SCF Done:  E(RB-P86) =  -866.564844251     A.U. after   11 cycles
 SCF Done:  E(RB-P86) =  -866.564983838     A.U. after    9 cycles
 SCF Done:  E(RB-P86) =  -866.565049638     A.U. after    9 cycles
 SCF Done:  E(RB-P86) =  -866.565064827     A.U. after    8 cycles
 SCF Done:  E(RB-P86) =  -866.565087313     A.U. after    9 cycles
 SCF Done:  E(RB-P86) =  -866.565110130     A.U. after    9 cycles
 SCF Done:  E(RB-P86) =  -866.565145803     A.U. after   10 cycles
 SCF Done:  E(RB-P86) =  -866.569805844     A.U. after   10 cycles
 SCF Done:  E(RB-P86) =  -866.569808313     A.U. after    9 cycles
 SCF Done:  E(RB-P86) =  -866.569761341     A.U. after   10 cycles
 SCF Done:  E(RB-P86) =  -866.569816747     A.U. after   10 cycles
 SCF Done:  E(RB-P86) =  -866.569817071     A.U. after    8 cycles
 SCF Done:  E(RB-P86) =  -866.569817295     A.U. after    8 cycles
 SCF Done:  E(RB-P86) =  -866.569816732     A.U. after    8 cycles
 SCF Done:  E(RB-P86) =  -866.569817490     A.U. after    8 cycles
 SCF Done:  E(RB-P86) =  -866.569817399     A.U. after    6 cycles
 Optimization completed.
    -- Stationary point found.
 Normal termination of Gaussian 16 at Sat Aug 21 10:00:56 2021.
 Gaussian 16:  ES64L-G16RevC.01  3-Jul-2019

 ---------------------------------------------------------
 # BP86/TZVP SCRF=COSMORS geom=CHECKPOINT guess=CHECKPOINT
 ---------------------------------------------------------

 -------------------------------------------
 COSMO-file for #POKOASTYJWUQJG-UHFFFAOYSA-M
 -------------------------------------------
 Structure from the checkpoint file:  "POKOASTYJWUQJG-UHFFFAOYSA-M.chk"
 Charge =  0 Multiplicity = 1

                         Standard orientation:
 ---------------------------------------------------------------------
 Center     Atomic      Atomic             Coordinates (Angstroms)
 Number     Number       Type             X           Y           Z
 ---------------------------------------------------------------------
      1          6           0       -1.945977    3.175927    1.013887
      2          6           0       -0.962880    2.402162    0.126880
      3          6           0       -1.518033    1.038050   -0.297689
      4          6           0       -0.612157    0.244072   -1.243175
      5          7           0        0.711882   -0.043520   -0.612184
      6          6           0        0.792358   -1.055333    0.292110
      7          6           0        1.990733   -1.308672    0.945322
      8          6           0        3.108430   -0.513497    0.675837
      9          6           0        2.999825    0.521279   -0.258731
     10          6           0        1.785605    0.739123   -0.892484
     11         17           0       -2.189141   -2.729403    0.072394
     12          1           0       -1.530732    4.148653    1.316652
     13          1           0       -2.893404    3.362641    0.483987
     14          1           0       -2.180490    2.609265    1.928947
     15          1           0       -0.722414    2.995892   -0.772227
     16          1           0       -0.013118    2.265230    0.671922
     17          1           0       -2.476566    1.169416   -0.827028
     18          1           0       -1.737060    0.413175    0.584324
     19          1           0       -0.411594    0.792356   -2.172568
     20          1           0       -1.069850   -0.727974   -1.474997
     21          1           0       -0.129094   -1.642434    0.429844
     22          1           0        2.036212   -2.129101    1.660580
     23          1           0        4.055208   -0.699540    1.183947
     24          1           0        3.845736    1.162645   -0.501615
     25          1           0        1.631951    1.525599   -1.628926
 ---------------------------------------------------------------------

 SCF Done:  E(RB-P86) =  -866.554366448     A.U. after   11 cycles

 The electronic state is 1-A.
 Alpha  occ. eigenvalues -- -100.64704 -14.11816  -9.97999  -9.97309  -9.95004
 Alpha  occ. eigenvalues --   -9.94771  -9.94091  -9.93985  -9.90367  -9.89552
 Alpha  occ. eigenvalues --   -9.88409  -9.08579  -6.90405  -6.90390  -6.90379
 Alpha  occ. eigenvalues --   -0.95353  -0.78717  -0.74134  -0.73035  -0.67767
 Alpha  occ. eigenvalues --   -0.63748  -0.62409  -0.61483  -0.58099  -0.53519
 Alpha  occ. eigenvalues --   -0.50062  -0.48175  -0.45941  -0.44374  -0.43206
 Alpha  occ. eigenvalues --   -0.42394  -0.41007  -0.38795  -0.37590  -0.35880
 Alpha  occ. eigenvalues --   -0.35621  -0.34437  -0.32913  -0.31691  -0.29846
 Alpha  occ. eigenvalues --   -0.29159  -0.28777  -0.27708  -0.21656  -0.21615
 Alpha  occ. eigenvalues --   -0.21464
 Alpha virt. eigenvalues --   -0.11445  -0.08348   0.02413   0.03459   0.04171
 Alpha virt. eigenvalues --    0.05181   0.05596   0.06393   0.07603   0.07937
 Alpha virt. eigenvalues --    0.08318   0.09428   0.09704   0.09877   0.10864

 Mulliken charges:
               1
     1  C   -0.431375
     2  C   -0.273460
     3  C   -0.233517
     4  C   -0.210551
     5  N   -0.030960
     6  C    0.063637
     7  C   -0.086177
     8  C   -0.134525
     9  C   -0.059080
    10  C   -0.012966
    11  Cl  -0.880254
    12  H    0.149644
    13  H    0.138453
    14  H    0.136016
    15  H    0.146077
    16  H    0.154744
    17  H    0.170881
    18  H    0.143751
    19  H    0.200904
    20  H    0.173323
    21  H    0.097449
    22  H    0.202165
    23  H    0.178052
    24  H    0.202763
    25  H    0.195006
 Sum of Mulliken charges =  -0.00000

 Dipole moment (field-independent basis, Debye):
    X=             14.7723    Y=             12.0192    Z=             -1.7046  Tot=             19.1204
 Quadrupole moment (field-independent basis, Debye-Ang):
   XX=            -75.6486   YY=           -101.5245   ZZ=            -70.1241
   XY=            -26.2214   XZ=              3.8643   YZ=             -5.9607

 Normal termination of Gaussian 16 at Sat Aug 21 10:01:17 2021.
