 Gaussian 16, Revision C.01,

 -------------------------------------------------------------
 #P BP86/TZVP EmpiricalDispersion=GD3 SCRF=(Solvent=Water) Opt
 -------------------------------------------------------------

 -------------------------------------
 Particle #POULHZVOKOAJMA-UHFFFAOYSA-N
 -------------------------------------
 Symbolic Z-matrix:
 Charge =  0 Multiplicity = 1

 SCF Done:  E(RB-P86) =  -622.448014066     A.U. after   13 cycles
 SCF Done:  E(RB-P86) =  -622.459133902     A.U. after   10 cycles
 SCF Done:  E(RB-P86) =  -622.460220958     A.U. after   10 cycles
 SCF Done:  E(RB-P86) =  -622.460046906     A.U. after   10 cycles
 SCF Done:  E(RB-P86) =  -622.460407729     A.U. after    9 cycles
 SCF Done:  E(RB-P86) =  -622.460418156     A.U. after    8 cycles
 SCF Done:  E(RB-P86) =  -622.460419731     A.U. after    8 cycles
 SCF Done:  E(RB-P86) =  -622.460420920     A.U. after    7 cycles
 SCF Done:  E(RB-P86) =  -622.460422930     A.U. after    8 cycles
 SCF Done:  E(RB-P86) =  -622.460427064     A.U. after   10 cycles
 SCF Done:  E(RB-P86) =  -622.460430613     A.U. after    9 cycles
 SCF Done:  E(RB-P86) =  -622.460442047     A.U. after    8 cycles
 SCF Done:  E(RB-P86) =  -622.460441259     A.U. after    7 cycles
 SCF Done:  E(RB-P86) =  -622.460440685     A.U. after    7 cycles
 SCF Done:  E(RB-P86) =  -622.460440218     A.U. after    6 cycles
 SCF Done:  E(RB-P86) =  -622.460440019     A.U. after    6 cycles
 SCF Done:  E(RB-P86) =  -622.460434363     A.U. after    8 cycles
 SCF Done:  E(RB-P86) =  -622.460440011     A.U. after    9 cycles
 SCF Done:  E(RB-P86) =  -622.460440059     A.U. after    5 cycles
 Optimization completed.
    -- Stationary point found.
 Normal termination of Gaussian 16 at Mon Feb 22 21:51:02 2021.
 Gaussian 16:  ES64L-G16RevC.01  3-Jul-2019

 ---------------------------------------------------------
 # BP86/TZVP SCRF=COSMORS geom=CHECKPOINT guess=CHECKPOINT
 ---------------------------------------------------------

 -------------------------------------------
 COSMO-file for #POULHZVOKOAJMA-UHFFFAOYSA-N
 -------------------------------------------
 Structure from the checkpoint file:  "POULHZVOKOAJMA-UHFFFAOYSA-N.chk"
 Charge =  0 Multiplicity = 1

                         Standard orientation:
 ---------------------------------------------------------------------
 Center     Atomic      Atomic             Coordinates (Angstroms)
 Number     Number       Type             X           Y           Z
 ---------------------------------------------------------------------
      1          6           0       -8.004942   -0.174456   -0.087245
      2          6           0       -6.694041    0.577902    0.173434
      3          6           0       -5.447358   -0.274155   -0.101197
      4          6           0       -4.128611    0.466875    0.154829
      5          6           0       -2.883297   -0.386386   -0.119405
      6          6           0       -1.564701    0.355728    0.134865
      7          6           0       -0.319883   -0.498292   -0.138769
      8          6           0        0.997930    0.246205    0.112981
      9          6           0        2.240535   -0.610801   -0.161260
     10          6           0        3.552582    0.142893    0.088329
     11          6           0        4.792967   -0.737841   -0.188261
     12          6           0        6.063852    0.024540    0.094762
     13          8           0        6.669944    0.026839    1.156634
     14          8           0        6.454586    0.779079   -0.973315
     15          1           0       -8.079449   -1.070465    0.550229
     16          1           0       -8.066992   -0.507610   -1.136010
     17          1           0       -8.883802    0.456506    0.116847
     18          1           0       -6.656252    1.486254   -0.453943
     19          1           0       -6.668868    0.928073    1.220738
     20          1           0       -5.483071   -1.183576    0.526714
     21          1           0       -5.471010   -0.625652   -1.149293
     22          1           0       -4.105627    0.818815    1.202627
     23          1           0       -4.093256    1.375606   -0.473855
     24          1           0       -2.906697   -0.739226   -1.166864
     25          1           0       -2.917780   -1.294509    0.510111
     26          1           0       -1.541224    0.709295    1.182024
     27          1           0       -1.529866    1.263243   -0.495471
     28          1           0       -0.343872   -0.853070   -1.185428
     29          1           0       -0.353193   -1.404727    0.493010
     30          1           0        1.022835    0.601173    1.159340
     31          1           0        1.032087    1.151664   -0.519856
     32          1           0        2.211062   -1.514109    0.474085
     33          1           0        2.217562   -0.966445   -1.207022
     34          1           0        3.585141    0.495045    1.133294
     35          1           0        3.593213    1.039251   -0.552735
     36          1           0        4.778741   -1.622143    0.464141
     37          1           0        4.784864   -1.071375   -1.236701
     38          1           0        7.249019    1.287374   -0.700908
 ---------------------------------------------------------------------

 SCF Done:  E(RB-P86) =  -622.430930738     A.U. after   10 cycles

 The electronic state is 1-A.
 Alpha  occ. eigenvalues --  -18.81975 -18.76888 -10.03173  -9.90950  -9.90119
 Alpha  occ. eigenvalues --   -9.89036  -9.88711  -9.88702  -9.88565  -9.88502
 Alpha  occ. eigenvalues --   -9.88483  -9.88472  -9.88460  -9.88054  -1.02073
 Alpha  occ. eigenvalues --   -0.93834  -0.74146  -0.73049  -0.71219  -0.68663
 Alpha  occ. eigenvalues --   -0.65478  -0.61816  -0.58025  -0.54957  -0.53073
 Alpha  occ. eigenvalues --   -0.51813  -0.51176  -0.50925  -0.45210  -0.43345
 Alpha  occ. eigenvalues --   -0.43294  -0.42287  -0.41274  -0.40531  -0.38477
 Alpha  occ. eigenvalues --   -0.38220  -0.37569  -0.36598  -0.35640  -0.35547
 Alpha  occ. eigenvalues --   -0.34198  -0.33372  -0.32997  -0.31452  -0.30809
 Alpha  occ. eigenvalues --   -0.29949  -0.29647  -0.29399  -0.28753  -0.28616
 Alpha  occ. eigenvalues --   -0.28101  -0.27978  -0.27529  -0.27438  -0.26110
 Alpha  occ. eigenvalues --   -0.24406
 Alpha virt. eigenvalues --   -0.04816   0.02138   0.02530   0.03223   0.04275
 Alpha virt. eigenvalues --    0.04934   0.05118   0.05760   0.06280   0.06432
 Alpha virt. eigenvalues --    0.07067   0.08492   0.08827   0.09202   0.10456

 Mulliken charges:
               1
     1  C   -0.418446
     2  C   -0.228031
     3  C   -0.259728
     4  C   -0.243863
     5  C   -0.253106
     6  C   -0.251993
     7  C   -0.254200
     8  C   -0.250780
     9  C   -0.250700
    10  C   -0.279918
    11  C   -0.263262
    12  C    0.212411
    13  O   -0.367204
    14  O   -0.280606
    15  H    0.131675
    16  H    0.131672
    17  H    0.144408
    18  H    0.126644
    19  H    0.126695
    20  H    0.122690
    21  H    0.122735
    22  H    0.123793
    23  H    0.123736
    24  H    0.125480
    25  H    0.125446
    26  H    0.126257
    27  H    0.126221
    28  H    0.127392
    29  H    0.127392
    30  H    0.129465
    31  H    0.129358
    32  H    0.134108
    33  H    0.133193
    34  H    0.143232
    35  H    0.148796
    36  H    0.166238
    37  H    0.163629
    38  H    0.329173
 Sum of Mulliken charges =  -0.00000

 Dipole moment (field-independent basis, Debye):
    X=             -1.4621    Y=              0.3540    Z=             -1.9602  Tot=              2.4709
 Quadrupole moment (field-independent basis, Debye-Ang):
   XX=           -105.8076   YY=            -89.4799   ZZ=            -94.9026
   XY=              4.4723   XZ=            -14.7609   YZ=             -0.6187

 Normal termination of Gaussian 16 at Mon Feb 22 21:51:29 2021.
