 Gaussian 16, Revision C.01,

 -------------------------------------------------------------
 #P BP86/TZVP EmpiricalDispersion=GD3 SCRF=(Solvent=Water) Opt
 -------------------------------------------------------------

 -------------------------------------
 Particle #PXELHGDYRQLRQO-UHFFFAOYSA-N
 -------------------------------------
 Symbolic Z-matrix:
 Charge =  1 Multiplicity = 1

 SCF Done:  E(RB-P86) =  -409.737312511     A.U. after   11 cycles
 SCF Done:  E(RB-P86) =  -409.746904178     A.U. after   10 cycles
 SCF Done:  E(RB-P86) =  -409.748017868     A.U. after    9 cycles
 SCF Done:  E(RB-P86) =  -409.748170678     A.U. after    9 cycles
 SCF Done:  E(RB-P86) =  -409.748273515     A.U. after    9 cycles
 SCF Done:  E(RB-P86) =  -409.748360525     A.U. after    9 cycles
 SCF Done:  E(RB-P86) =  -409.748398543     A.U. after    9 cycles
 SCF Done:  E(RB-P86) =  -409.748459116     A.U. after    9 cycles
 SCF Done:  E(RB-P86) =  -409.748479353     A.U. after    8 cycles
 SCF Done:  E(RB-P86) =  -409.748489137     A.U. after    8 cycles
 SCF Done:  E(RB-P86) =  -409.748491096     A.U. after    7 cycles
 SCF Done:  E(RB-P86) =  -409.748492013     A.U. after    7 cycles
 SCF Done:  E(RB-P86) =  -409.748492494     A.U. after    8 cycles
 Optimization completed.
    -- Stationary point found.
 Normal termination of Gaussian 16 at Tue Feb 23 00:16:00 2021.
 Gaussian 16:  ES64L-G16RevC.01  3-Jul-2019

 ---------------------------------------------------------
 # BP86/TZVP SCRF=COSMORS geom=CHECKPOINT guess=CHECKPOINT
 ---------------------------------------------------------

 -------------------------------------------
 COSMO-file for #PXELHGDYRQLRQO-UHFFFAOYSA-N
 -------------------------------------------
 Structure from the checkpoint file:  "PXELHGDYRQLRQO-UHFFFAOYSA-N.chk"
 Charge =  1 Multiplicity = 1

                         Standard orientation:
 ---------------------------------------------------------------------
 Center     Atomic      Atomic             Coordinates (Angstroms)
 Number     Number       Type             X           Y           Z
 ---------------------------------------------------------------------
      1          6           0        4.313221    0.451298    0.077619
      2          6           0        3.099081   -0.266924   -0.522312
      3          6           0        1.790159    0.113225    0.191575
      4          6           0        0.614020   -0.641333   -0.419652
      5          7           0       -0.752777   -0.258888    0.130295
      6          6           0       -0.821559   -0.503261    1.616511
      7          6           0       -1.848498   -1.055797   -0.577818
      8          6           0       -3.135316   -0.244421   -0.376364
      9          6           0       -2.667365    1.214466   -0.094391
     10          6           0       -1.137613    1.182076   -0.195242
     11          1           0        5.238622    0.170477   -0.446648
     12          1           0        4.437743    0.196893    1.141964
     13          1           0        4.202038    1.544656    0.004434
     14          1           0        3.243588   -1.358970   -0.460375
     15          1           0        3.012878   -0.023056   -1.594751
     16          1           0        1.886244   -0.121671    1.262920
     17          1           0        1.633698    1.200455    0.105310
     18          1           0        0.712915   -1.724457   -0.258821
     19          1           0        0.558623   -0.459651   -1.502536
     20          1           0       -0.532812   -1.541870    1.811360
     21          1           0       -0.139758    0.183747    2.126346
     22          1           0       -1.844810   -0.328950    1.963061
     23          1           0       -1.865512   -2.071427   -0.166794
     24          1           0       -1.557415   -1.101274   -1.634863
     25          1           0       -3.726252   -0.637274    0.460478
     26          1           0       -3.757953   -0.311565   -1.276617
     27          1           0       -3.073178    1.929732   -0.819817
     28          1           0       -2.986805    1.542606    0.903121
     29          1           0       -0.789258    1.367147   -1.219630
     30          1           0       -0.619934    1.860695    0.490238
 ---------------------------------------------------------------------

 SCF Done:  E(RB-P86) =  -409.725495995     A.U. after   10 cycles

 The electronic state is 1-A.
 Alpha  occ. eigenvalues --  -14.12536  -9.94911  -9.94900  -9.94895  -9.94070
 Alpha  occ. eigenvalues --   -9.90895  -9.90831  -9.90371  -9.89727  -9.88405
 Alpha  occ. eigenvalues --   -0.93459  -0.75247  -0.72378  -0.68974  -0.67799
 Alpha  occ. eigenvalues --   -0.65009  -0.59081  -0.55228  -0.54578  -0.52484
 Alpha  occ. eigenvalues --   -0.48319  -0.47091  -0.44532  -0.43741  -0.41777
 Alpha  occ. eigenvalues --   -0.39509  -0.39169  -0.37160  -0.36731  -0.36162
 Alpha  occ. eigenvalues --   -0.35650  -0.34274  -0.33823  -0.32713  -0.32672
 Alpha  occ. eigenvalues --   -0.31594  -0.30480  -0.29895  -0.29429  -0.28902
 Alpha virt. eigenvalues --    0.00553   0.02516   0.03013   0.03876   0.04560
 Alpha virt. eigenvalues --    0.05174   0.05393   0.05805   0.06440   0.07298
 Alpha virt. eigenvalues --    0.07373   0.08140   0.09044   0.09517   0.10351

 Mulliken charges:
               1
     1  C   -0.419070
     2  C   -0.257697
     3  C   -0.252239
     4  C   -0.189748
     5  N   -0.192960
     6  C   -0.317145
     7  C   -0.223406
     8  C   -0.241796
     9  C   -0.288822
    10  C   -0.234490
    11  H    0.149416
    12  H    0.137295
    13  H    0.136234
    14  H    0.140032
    15  H    0.141779
    16  H    0.160902
    17  H    0.161163
    18  H    0.201243
    19  H    0.193077
    20  H    0.197760
    21  H    0.205685
    22  H    0.213014
    23  H    0.212943
    24  H    0.214305
    25  H    0.179426
    26  H    0.172114
    27  H    0.175338
    28  H    0.186252
    29  H    0.215515
    30  H    0.223882
 Sum of Mulliken charges =   1.00000

 Dipole moment (field-independent basis, Debye):
    X=             -3.9213    Y=             -0.9254    Z=              0.4699  Tot=              4.0563
 Quadrupole moment (field-independent basis, Debye-Ang):
   XX=            -49.8235   YY=            -57.2375   ZZ=            -56.6730
   XY=             -0.0832   XZ=             -0.3557   YZ=             -0.7973

 Normal termination of Gaussian 16 at Tue Feb 23 00:16:19 2021.
