 Gaussian 16, Revision C.01,

 -------------------------------------------------------------
 #P BP86/TZVP EmpiricalDispersion=GD3 SCRF=(Solvent=Water) Opt
 -------------------------------------------------------------

 -------------------------------------
 Particle #QAIPRVGONGVQAS-DUXPYHPUSA-N
 -------------------------------------
 Symbolic Z-matrix:
 Charge =  0 Multiplicity = 1

 SCF Done:  E(RB-P86) =  -648.901912281     A.U. after   15 cycles
 SCF Done:  E(RB-P86) =  -648.936823275     A.U. after   13 cycles
 SCF Done:  E(RB-P86) =  -648.944301437     A.U. after   12 cycles
 SCF Done:  E(RB-P86) =  -648.944831565     A.U. after   11 cycles
 SCF Done:  E(RB-P86) =  -648.944992918     A.U. after   11 cycles
 SCF Done:  E(RB-P86) =  -648.945072474     A.U. after   11 cycles
 SCF Done:  E(RB-P86) =  -648.945144103     A.U. after   10 cycles
 SCF Done:  E(RB-P86) =  -648.945202213     A.U. after   11 cycles
 SCF Done:  E(RB-P86) =  -648.945213804     A.U. after   10 cycles
 SCF Done:  E(RB-P86) =  -648.945219004     A.U. after    9 cycles
 SCF Done:  E(RB-P86) =  -648.945219767     A.U. after    8 cycles
 SCF Done:  E(RB-P86) =  -648.945219881     A.U. after    8 cycles
 Optimization completed.
    -- Stationary point found.
 Normal termination of Gaussian 16 at Mon Feb 22 21:21:13 2021.
 Gaussian 16:  ES64L-G16RevC.01  3-Jul-2019

 ---------------------------------------------------------
 # BP86/TZVP SCRF=COSMORS geom=CHECKPOINT guess=CHECKPOINT
 ---------------------------------------------------------

 -------------------------------------------
 COSMO-file for #QAIPRVGONGVQAS-DUXPYHPUSA-N
 -------------------------------------------
 Structure from the checkpoint file:  "QAIPRVGONGVQAS-DUXPYHPUSA-N.chk"
 Charge =  0 Multiplicity = 1

                         Standard orientation:
 ---------------------------------------------------------------------
 Center     Atomic      Atomic             Coordinates (Angstroms)
 Number     Number       Type             X           Y           Z
 ---------------------------------------------------------------------
      1          8           0        4.750447   -0.871043    0.000695
      2          6           0        3.798639   -0.089278   -0.000112
      3          8           0        3.982998    1.269937   -0.000793
      4          6           0        2.396981   -0.509666   -0.000456
      5          6           0        1.342916    0.346202    0.000224
      6          6           0       -0.072270    0.005304    0.000366
      7          6           0       -0.550369   -1.324788    0.000048
      8          6           0       -1.918214   -1.587884    0.000239
      9          6           0       -2.839969   -0.532836   -0.000252
     10          8           0       -4.202646   -0.682476   -0.000495
     11          6           0       -2.382476    0.804707    0.000232
     12          8           0       -3.268815    1.851558    0.000344
     13          6           0       -1.015090    1.060519    0.000062
     14          1           0        4.950832    1.422731   -0.000080
     15          1           0        2.267349   -1.593265   -0.001024
     16          1           0        1.564989    1.418454    0.000759
     17          1           0        0.145193   -2.164565    0.000474
     18          1           0       -2.282601   -2.618111   -0.000015
     19          1           0       -4.446389   -1.626564   -0.000654
     20          1           0       -4.175321    1.483467    0.000057
     21          1           0       -0.680811    2.100368    0.000357
 ---------------------------------------------------------------------

 SCF Done:  E(RB-P86) =  -648.938858097     A.U. after   12 cycles

 The electronic state is 1-A.
 Alpha  occ. eigenvalues --  -18.81918 -18.81461 -18.80866 -18.76352 -10.02867
 Alpha  occ. eigenvalues --   -9.97693  -9.97029  -9.92848  -9.92315  -9.91470
 Alpha  occ. eigenvalues --   -9.91273  -9.91258  -9.91199  -1.01504  -1.00133
 Alpha  occ. eigenvalues --   -0.97451  -0.93164  -0.79605  -0.74017  -0.69279
 Alpha  occ. eigenvalues --   -0.68257  -0.61508  -0.57745  -0.56761  -0.53331
 Alpha  occ. eigenvalues --   -0.51143  -0.49040  -0.45998  -0.44518  -0.42683
 Alpha  occ. eigenvalues --   -0.41875  -0.40526  -0.39905  -0.39709  -0.37840
 Alpha  occ. eigenvalues --   -0.36968  -0.35478  -0.33906  -0.33830  -0.33415
 Alpha  occ. eigenvalues --   -0.32653  -0.31304  -0.28805  -0.26659  -0.24686
 Alpha  occ. eigenvalues --   -0.22738  -0.19894
 Alpha virt. eigenvalues --   -0.10595  -0.04807  -0.02147   0.00978   0.03147
 Alpha virt. eigenvalues --    0.03601   0.04584   0.05651   0.06223   0.09130
 Alpha virt. eigenvalues --    0.10177   0.10272   0.10731   0.11632   0.13985

 Mulliken charges:
               1
     1  O   -0.386940
     2  C    0.185955
     3  O   -0.292722
     4  C   -0.161487
     5  C   -0.203247
     6  C    0.020692
     7  C   -0.131590
     8  C   -0.115067
     9  C    0.053906
    10  O   -0.337515
    11  C    0.047957
    12  O   -0.308937
    13  C   -0.221501
    14  H    0.328922
    15  H    0.188862
    16  H    0.175170
    17  H    0.158655
    18  H    0.164561
    19  H    0.348047
    20  H    0.329613
    21  H    0.156665
 Sum of Mulliken charges =  -0.00000

 Dipole moment (field-independent basis, Debye):
    X=             -6.7636    Y=             -1.5602    Z=              0.0004  Tot=              6.9412
 Quadrupole moment (field-independent basis, Debye-Ang):
   XX=            -71.9014   YY=            -68.1112   ZZ=            -78.9952
   XY=             24.8865   XZ=              0.0021   YZ=              0.0071

 Normal termination of Gaussian 16 at Mon Feb 22 21:21:29 2021.
