 Gaussian 16, Revision C.01,

 -------------------------------------------------------------
 #P BP86/TZVP EmpiricalDispersion=GD3 SCRF=(Solvent=Water) Opt
 -------------------------------------------------------------

 -------------------------------------
 Particle #QGZKDVFQNNGYKY-UHFFFAOYSA-O
 -------------------------------------
 Symbolic Z-matrix:
 Charge =  1 Multiplicity = 1

 SCF Done:  E(RB-P86) =  -57.0375908641     A.U. after    7 cycles
 SCF Done:  E(RB-P86) =  -57.0377084084     A.U. after    6 cycles
 Optimization completed.
    -- Stationary point found.
 Normal termination of Gaussian 16 at Tue Feb 23 00:11:15 2021.
 Gaussian 16:  ES64L-G16RevC.01  3-Jul-2019

 ---------------------------------------------------------
 # BP86/TZVP SCRF=COSMORS geom=CHECKPOINT guess=CHECKPOINT
 ---------------------------------------------------------

 -------------------------------------------
 COSMO-file for #QGZKDVFQNNGYKY-UHFFFAOYSA-O
 -------------------------------------------
 Structure from the checkpoint file:  "QGZKDVFQNNGYKY-UHFFFAOYSA-O.chk"
 Charge =  1 Multiplicity = 1

                         Standard orientation:
 ---------------------------------------------------------------------
 Center     Atomic      Atomic             Coordinates (Angstroms)
 Number     Number       Type             X           Y           Z
 ---------------------------------------------------------------------
      1          7           0        0.000000   -0.000204    0.000000
      2          1           0        0.573779   -0.151798    0.839853
      3          1           0        0.573779   -0.151798   -0.839853
      4          1           0       -0.789626   -0.658842    0.000000
      5          1           0       -0.357932    0.963864   -0.000000
 ---------------------------------------------------------------------

 SCF Done:  E(RB-P86) =  -57.0547978427     A.U. after    6 cycles

 The electronic state is 1-A'.
 Alpha  occ. eigenvalues --  -14.10640  -0.90207  -0.50863  -0.50858  -0.50838
 Alpha virt. eigenvalues --    0.00031   0.07788   0.07793   0.07797   0.23884
 Alpha virt. eigenvalues --    0.23895   0.23895   0.37763   0.43607   0.43610
 Alpha virt. eigenvalues --    0.43613   0.58141   0.98752   0.98766   1.45134

 Mulliken charges:
               1
     1  N   -0.343077
     2  H    0.335782
     3  H    0.335782
     4  H    0.335842
     5  H    0.335671
 Sum of Mulliken charges =   1.00000

 Dipole moment (field-independent basis, Debye):
    X=              0.0001    Y=              0.0024    Z=              0.0000  Tot=              0.0024
 Quadrupole moment (field-independent basis, Debye-Ang):
   XX=             -4.3752   YY=             -4.3775   ZZ=             -4.3735
   XY=              0.0030   XZ=              0.0000   YZ=              0.0000

 Normal termination of Gaussian 16 at Tue Feb 23 00:11:16 2021.
