 Gaussian 16, Revision C.01,

 -------------------------------------------------------------
 #P BP86/TZVP EmpiricalDispersion=GD3 SCRF=(Solvent=Water) Opt
 -------------------------------------------------------------

 -------------------------------------
 Particle #QIGBRXMKCJKVMJ-UHFFFAOYSA-N
 -------------------------------------
 Symbolic Z-matrix:
 Charge =  0 Multiplicity = 1

 SCF Done:  E(RB-P86) =  -382.829990710     A.U. after   11 cycles
 SCF Done:  E(RB-P86) =  -382.845819862     A.U. after   11 cycles
 SCF Done:  E(RB-P86) =  -382.846067637     A.U. after   10 cycles
 SCF Done:  E(RB-P86) =  -382.846078689     A.U. after    8 cycles
 SCF Done:  E(RB-P86) =  -382.846081138     A.U. after    8 cycles
 Optimization completed.
    -- Stationary point found.
 Normal termination of Gaussian 16 at Mon Feb 22 21:18:32 2021.
 Gaussian 16:  ES64L-G16RevC.01  3-Jul-2019

 ---------------------------------------------------------
 # BP86/TZVP SCRF=COSMORS geom=CHECKPOINT guess=CHECKPOINT
 ---------------------------------------------------------

 -------------------------------------------
 COSMO-file for #QIGBRXMKCJKVMJ-UHFFFAOYSA-N
 -------------------------------------------
 Structure from the checkpoint file:  "QIGBRXMKCJKVMJ-UHFFFAOYSA-N.chk"
 Charge =  0 Multiplicity = 1

                         Standard orientation:
 ---------------------------------------------------------------------
 Center     Atomic      Atomic             Coordinates (Angstroms)
 Number     Number       Type             X           Y           Z
 ---------------------------------------------------------------------
      1          8           0        2.785791    0.079290   -0.000000
      2          6           0        1.405413    0.009828    0.000000
      3          6           0        0.697944    1.221561   -0.000000
      4          6           0       -0.697944    1.221561    0.000000
      5          6           0       -1.405413    0.009828    0.000000
      6          8           0       -2.785791    0.079290   -0.000000
      7          6           0       -0.700164   -1.201533    0.000000
      8          6           0        0.700164   -1.201533   -0.000000
      9          1           0        3.152496   -0.824052    0.000001
     10          1           0        1.250986    2.162717   -0.000000
     11          1           0       -1.250986    2.162717   -0.000000
     12          1           0       -3.152496   -0.824052   -0.000001
     13          1           0       -1.240012   -2.152121    0.000000
     14          1           0        1.240012   -2.152121   -0.000000
 ---------------------------------------------------------------------

 SCF Done:  E(RB-P86) =  -382.844385538     A.U. after   10 cycles

 The electronic state is 1-A.
 Alpha  occ. eigenvalues --  -18.79937 -18.79937  -9.95959  -9.95958  -9.90676
 Alpha  occ. eigenvalues --   -9.90641  -9.90441  -9.90406  -0.97233  -0.97136
 Alpha  occ. eigenvalues --   -0.77926  -0.68706  -0.67013  -0.57285  -0.56221
 Alpha  occ. eigenvalues --   -0.50050  -0.48525  -0.44508  -0.40149  -0.38259
 Alpha  occ. eigenvalues --   -0.37703  -0.36833  -0.36242  -0.34790  -0.32403
 Alpha  occ. eigenvalues --   -0.30228  -0.27490  -0.23904  -0.18759
 Alpha virt. eigenvalues --   -0.05120  -0.02217   0.02950   0.03601   0.04578
 Alpha virt. eigenvalues --    0.07664   0.10135   0.10540   0.10729   0.11388
 Alpha virt. eigenvalues --    0.14974   0.15751   0.18014   0.18035   0.20332

 Mulliken charges:
               1
     1  O   -0.335060
     2  C    0.098911
     3  C   -0.218652
     4  C   -0.218657
     5  C    0.098912
     6  O   -0.335063
     7  C   -0.192232
     8  C   -0.192231
     9  H    0.327429
    10  H    0.154035
    11  H    0.154033
    12  H    0.327428
    13  H    0.165574
    14  H    0.165574
 Sum of Mulliken charges =  -0.00000

 Dipole moment (field-independent basis, Debye):
    X=              0.0000    Y=             -3.8871    Z=             -0.0003  Tot=              3.8871
 Quadrupole moment (field-independent basis, Debye-Ang):
   XX=            -42.8375   YY=            -38.0003   ZZ=            -50.9204
   XY=             -0.0001   XZ=             -0.0021   YZ=             -0.0001

 Normal termination of Gaussian 16 at Mon Feb 22 21:18:40 2021.
