 Gaussian 16, Revision C.01,

 -------------------------------------------------------------
 #P BP86/TZVP EmpiricalDispersion=GD3 SCRF=(Solvent=Water) Opt
 -------------------------------------------------------------

 -------------------------------------
 Particle #QIQXTHQIDYTFRH-UHFFFAOYSA-N
 -------------------------------------
 Symbolic Z-matrix:
 Charge =  0 Multiplicity = 1

 SCF Done:  E(RB-P86) =  -858.408364961     A.U. after   13 cycles
 SCF Done:  E(RB-P86) =  -858.421278093     A.U. after   10 cycles
 SCF Done:  E(RB-P86) =  -858.422740778     A.U. after    9 cycles
 SCF Done:  E(RB-P86) =  -858.422632107     A.U. after   10 cycles
 SCF Done:  E(RB-P86) =  -858.422910894     A.U. after    9 cycles
 SCF Done:  E(RB-P86) =  -858.422940812     A.U. after    8 cycles
 SCF Done:  E(RB-P86) =  -858.422943524     A.U. after    7 cycles
 SCF Done:  E(RB-P86) =  -858.422947714     A.U. after    8 cycles
 SCF Done:  E(RB-P86) =  -858.422952539     A.U. after    8 cycles
 SCF Done:  E(RB-P86) =  -858.422962767     A.U. after    9 cycles
 SCF Done:  E(RB-P86) =  -858.422970820     A.U. after    9 cycles
 SCF Done:  E(RB-P86) =  -858.422980189     A.U. after    9 cycles
 SCF Done:  E(RB-P86) =  -858.422976795     A.U. after    9 cycles
 SCF Done:  E(RB-P86) =  -858.422980010     A.U. after    8 cycles
 SCF Done:  E(RB-P86) =  -858.422981566     A.U. after    8 cycles
 SCF Done:  E(RB-P86) =  -858.422979648     A.U. after    8 cycles
 SCF Done:  E(RB-P86) =  -858.422980021     A.U. after    7 cycles
 SCF Done:  E(RB-P86) =  -858.422980287     A.U. after    7 cycles
 SCF Done:  E(RB-P86) =  -858.422980276     A.U. after    5 cycles
 Optimization completed.
    -- Stationary point found.
 Normal termination of Gaussian 16 at Mon Feb 22 21:39:46 2021.
 Gaussian 16:  ES64L-G16RevC.01  3-Jul-2019

 ---------------------------------------------------------
 # BP86/TZVP SCRF=COSMORS geom=CHECKPOINT guess=CHECKPOINT
 ---------------------------------------------------------

 -------------------------------------------
 COSMO-file for #QIQXTHQIDYTFRH-UHFFFAOYSA-N
 -------------------------------------------
 Structure from the checkpoint file:  "QIQXTHQIDYTFRH-UHFFFAOYSA-N.chk"
 Charge =  0 Multiplicity = 1

                         Standard orientation:
 ---------------------------------------------------------------------
 Center     Atomic      Atomic             Coordinates (Angstroms)
 Number     Number       Type             X           Y           Z
 ---------------------------------------------------------------------
      1          6           0      -11.902673   -0.249776   -0.070901
      2          6           0      -10.610911    0.559124    0.101034
      3          6           0       -9.343410   -0.288949   -0.071666
      4          6           0       -8.043429    0.507812    0.098459
      5          6           0       -6.777331   -0.341317   -0.074984
      6          6           0       -5.477112    0.455124    0.095760
      7          6           0       -4.211312   -0.394293   -0.078112
      8          6           0       -2.910787    0.401589    0.092858
      9          6           0       -1.645371   -0.448307   -0.081442
     10          6           0       -0.344482    0.347019    0.089287
     11          6           0        0.920360   -0.503613   -0.085530
     12          6           0        2.221569    0.291317    0.084447
     13          6           0        3.485314   -0.560739   -0.091043
     14          6           0        4.786417    0.234783    0.077711
     15          6           0        6.047257   -0.621272   -0.099096
     16          6           0        7.343208    0.181211    0.068783
     17          6           0        8.600881   -0.699642   -0.111529
     18          6           0        9.861945    0.103216    0.092914
     19          8           0       10.525788    0.139269    1.118946
     20          8           0       10.173847    0.848300   -1.007516
     21          1           0      -11.958193   -1.066500    0.667116
     22          1           0      -11.952964   -0.704961   -1.073427
     23          1           0      -12.797025    0.379458    0.057134
     24          1           0      -10.597625    1.029478    1.100401
     25          1           0      -10.592603    1.388884   -0.627883
     26          1           0       -9.360121   -1.120246    0.657257
     27          1           0       -9.354703   -0.759956   -1.072001
     28          1           0       -8.027336    1.339081   -0.630297
     29          1           0       -8.032485    0.978179    1.098944
     30          1           0       -6.788020   -0.811348   -1.075605
     31          1           0       -6.793584   -1.172845    0.653442
     32          1           0       -5.466202    0.924877    1.096515
     33          1           0       -5.460828    1.286824   -0.632472
     34          1           0       -4.222223   -0.863897   -1.078942
     35          1           0       -4.227798   -1.226133    0.649969
     36          1           0       -2.899619    0.870958    1.093790
     37          1           0       -2.894230    1.233546   -0.635074
     38          1           0       -1.662019   -1.280240    0.646525
     39          1           0       -1.656733   -0.917754   -1.082339
     40          1           0       -0.332774    0.816227    1.090273
     41          1           0       -0.327722    1.179017   -0.638573
     42          1           0        0.908293   -0.973131   -1.086358
     43          1           0        0.903701   -1.335376    0.642594
     44          1           0        2.234208    0.760535    1.085353
     45          1           0        2.238532    1.123017   -0.643662
     46          1           0        3.472423   -1.030396   -1.091646
     47          1           0        3.469009   -1.391771    0.637720
     48          1           0        4.800646    0.703584    1.078487
     49          1           0        4.803724    1.065388   -0.651211
     50          1           0        6.033064   -1.450306    0.631031
     51          1           0        6.035664   -1.089528   -1.099762
     52          1           0        7.365397    0.643757    1.070203
     53          1           0        7.368608    1.004359   -0.664207
     54          1           0        8.599807   -1.515673    0.624229
     55          1           0        8.603631   -1.136098   -1.122115
     56          1           0       10.970217    1.378707   -0.788547
 ---------------------------------------------------------------------

 SCF Done:  E(RB-P86) =  -858.374894267     A.U. after    9 cycles

 The electronic state is 1-A.
 Alpha  occ. eigenvalues --  -18.81950 -18.76904 -10.03174  -9.90952  -9.90096
 Alpha  occ. eigenvalues --   -9.89030  -9.88710  -9.88698  -9.88562  -9.88499
 Alpha  occ. eigenvalues --   -9.88475  -9.88472  -9.88468  -9.88466  -9.88463
 Alpha  occ. eigenvalues --   -9.88459  -9.88456  -9.88454  -9.88451  -9.88052
 Alpha  occ. eigenvalues --   -1.02067  -0.93832  -0.74162  -0.73622  -0.72801
 Alpha  occ. eigenvalues --   -0.71613  -0.70082  -0.68230  -0.66085  -0.63685
 Alpha  occ. eigenvalues --   -0.61094  -0.58436  -0.55978  -0.54187  -0.52776
 Alpha  occ. eigenvalues --   -0.51773  -0.51474  -0.51275  -0.50755  -0.50664
 Alpha  occ. eigenvalues --   -0.45191  -0.43471  -0.43317  -0.42998  -0.42189
 Alpha  occ. eigenvalues --   -0.41286  -0.41043  -0.39658  -0.38627  -0.38187
 Alpha  occ. eigenvalues --   -0.38020  -0.37462  -0.36853  -0.36274  -0.35717
 Alpha  occ. eigenvalues --   -0.35589  -0.34473  -0.34176  -0.33253  -0.32697
 Alpha  occ. eigenvalues --   -0.32593  -0.31181  -0.31128  -0.30330  -0.29975
 Alpha  occ. eigenvalues --   -0.29803  -0.29205  -0.29074  -0.28591  -0.28495
 Alpha  occ. eigenvalues --   -0.28156  -0.27997  -0.27986  -0.27622  -0.27484
 Alpha  occ. eigenvalues --   -0.27378  -0.27366  -0.27359  -0.25273  -0.24340
 Alpha virt. eigenvalues --   -0.04818   0.02099   0.02319   0.02708   0.03254
 Alpha virt. eigenvalues --    0.03940   0.04711   0.04791   0.04908   0.05335
 Alpha virt. eigenvalues --    0.05439   0.05902   0.06311   0.06396   0.07075

 Mulliken charges:
               1
     1  C   -0.418423
     2  C   -0.228002
     3  C   -0.259817
     4  C   -0.243557
     5  C   -0.252969
     6  C   -0.251431
     7  C   -0.252130
     8  C   -0.251468
     9  C   -0.251611
    10  C   -0.251334
    11  C   -0.251870
    12  C   -0.251447
    13  C   -0.253964
    14  C   -0.250564
    15  C   -0.251224
    16  C   -0.281015
    17  C   -0.260238
    18  C    0.211099
    19  O   -0.365997
    20  O   -0.281670
    21  H    0.131708
    22  H    0.131605
    23  H    0.144423
    24  H    0.126644
    25  H    0.126700
    26  H    0.122708
    27  H    0.122687
    28  H    0.123680
    29  H    0.123657
    30  H    0.125214
    31  H    0.125225
    32  H    0.125578
    33  H    0.125594
    34  H    0.125676
    35  H    0.125684
    36  H    0.125655
    37  H    0.125670
    38  H    0.125666
    39  H    0.125666
    40  H    0.125735
    41  H    0.125749
    42  H    0.125906
    43  H    0.125880
    44  H    0.126280
    45  H    0.126327
    46  H    0.127378
    47  H    0.127316
    48  H    0.129173
    49  H    0.129578
    50  H    0.134022
    51  H    0.133122
    52  H    0.142108
    53  H    0.149963
    54  H    0.163942
    55  H    0.166116
    56  H    0.329597
 Sum of Mulliken charges =  -0.00000

 Dipole moment (field-independent basis, Debye):
    X=             -1.5641    Y=              0.2786    Z=             -1.9310  Tot=              2.5006
 Quadrupole moment (field-independent basis, Debye-Ang):
   XX=           -161.5083   YY=           -130.8815   ZZ=           -134.0090
   XY=              4.5417   XZ=            -22.3630   YZ=             -1.2126

 Normal termination of Gaussian 16 at Mon Feb 22 21:40:33 2021.
