 Gaussian 16, Revision C.01,

 -------------------------------------------------------------
 #P BP86/TZVP EmpiricalDispersion=GD3 SCRF=(Solvent=Water) Opt
 -------------------------------------------------------------

 -------------------------------------
 Particle #QNAYBMKLOCPYGJ-UHFFFAOYSA-N
 -------------------------------------
 Symbolic Z-matrix:
 Charge =  0 Multiplicity = 1

 SCF Done:  E(RB-P86) =  -323.873422351     A.U. after   14 cycles
 SCF Done:  E(RB-P86) =  -323.888807280     A.U. after   12 cycles
 SCF Done:  E(RB-P86) =  -323.891616172     A.U. after   12 cycles
 SCF Done:  E(RB-P86) =  -323.889561742     A.U. after   12 cycles
 SCF Done:  E(RB-P86) =  -323.894034108     A.U. after   10 cycles
 SCF Done:  E(RB-P86) =  -323.895538992     A.U. after   11 cycles
 SCF Done:  E(RB-P86) =  -323.896798918     A.U. after   11 cycles
 SCF Done:  E(RB-P86) =  -323.897507236     A.U. after   11 cycles
 SCF Done:  E(RB-P86) =  -323.897840041     A.U. after   12 cycles
 SCF Done:  E(RB-P86) =  -323.898671172     A.U. after   10 cycles
 SCF Done:  E(RB-P86) =  -323.898837468     A.U. after   10 cycles
 SCF Done:  E(RB-P86) =  -323.898954698     A.U. after   11 cycles
 SCF Done:  E(RB-P86) =  -323.898982058     A.U. after    9 cycles
 SCF Done:  E(RB-P86) =  -323.898988500     A.U. after    9 cycles
 SCF Done:  E(RB-P86) =  -323.898990840     A.U. after    9 cycles
 SCF Done:  E(RB-P86) =  -323.898992239     A.U. after    8 cycles
 SCF Done:  E(RB-P86) =  -323.898992862     A.U. after    8 cycles
 SCF Done:  E(RB-P86) =  -323.898993294     A.U. after    8 cycles
 Optimization completed.
    -- Stationary point found.
 Normal termination of Gaussian 16 at Mon Feb 22 21:20:29 2021.
 Gaussian 16:  ES64L-G16RevC.01  3-Jul-2019

 ---------------------------------------------------------
 # BP86/TZVP SCRF=COSMORS geom=CHECKPOINT guess=CHECKPOINT
 ---------------------------------------------------------

 -------------------------------------------
 COSMO-file for #QNAYBMKLOCPYGJ-UHFFFAOYSA-N
 -------------------------------------------
 Structure from the checkpoint file:  "QNAYBMKLOCPYGJ-UHFFFAOYSA-N.chk"
 Charge =  0 Multiplicity = 1

                         Standard orientation:
 ---------------------------------------------------------------------
 Center     Atomic      Atomic             Coordinates (Angstroms)
 Number     Number       Type             X           Y           Z
 ---------------------------------------------------------------------
      1          6           0        1.272311    1.305987    0.354026
      2          6           0        0.596413    0.181337   -0.419787
      3          7           0        1.219556   -1.169301   -0.125453
      4          6           0       -0.920205    0.000388   -0.043134
      5          8           0       -1.668750    0.986345   -0.206308
      6          8           0       -1.214282   -1.166327    0.395005
      7          1           0        0.742446    2.243682    0.144350
      8          1           0        1.223130    1.123291    1.438559
      9          1           0        2.324321    1.424971    0.057609
     10          1           0        0.666719    0.354633   -1.501610
     11          1           0        1.934635   -1.136072    0.610014
     12          1           0        0.326989   -1.682068    0.223082
     13          1           0        1.618010   -1.629757   -0.950038
 ---------------------------------------------------------------------

 SCF Done:  E(RB-P86) =  -323.903018545     A.U. after   11 cycles

 The electronic state is 1-A.
 Alpha  occ. eigenvalues --  -18.74113 -18.73089 -14.07975  -9.99521  -9.95456
 Alpha  occ. eigenvalues --   -9.89844  -0.96425  -0.89560  -0.87097  -0.69810
 Alpha  occ. eigenvalues --   -0.59228  -0.51212  -0.49384  -0.47044  -0.43454
 Alpha  occ. eigenvalues --   -0.39953  -0.37661  -0.36974  -0.34693  -0.34028
 Alpha  occ. eigenvalues --   -0.32375  -0.24311  -0.23413  -0.21439
 Alpha virt. eigenvalues --   -0.01189   0.01561   0.05517   0.05843   0.08261
 Alpha virt. eigenvalues --    0.08645   0.09803   0.10296   0.11743   0.14413
 Alpha virt. eigenvalues --    0.15706   0.18416   0.20275   0.20923   0.22110

 Mulliken charges:
               1
     1  C   -0.442609
     2  C   -0.138059
     3  N   -0.283942
     4  C    0.180646
     5  O   -0.469932
     6  O   -0.481491
     7  H    0.160272
     8  H    0.154411
     9  H    0.169459
    10  H    0.212668
    11  H    0.322693
    12  H    0.290879
    13  H    0.325005
 Sum of Mulliken charges =  -0.00000

 Dipole moment (field-independent basis, Debye):
    X=             12.1850    Y=             -3.5156    Z=             -1.3191  Tot=             12.7505
 Quadrupole moment (field-independent basis, Debye-Ang):
   XX=            -40.6412   YY=            -36.3726   ZZ=            -33.9828
   XY=             -4.4491   XZ=              0.0516   YZ=              3.0248

 Normal termination of Gaussian 16 at Mon Feb 22 21:20:35 2021.
