 Gaussian 16, Revision C.01,

 -------------------------------------------------------------
 #P BP86/TZVP EmpiricalDispersion=GD3 SCRF=(Solvent=Water) Opt
 -------------------------------------------------------------

 -------------------------------------
 Particle #QTBSBXVTEAMEQO-UHFFFAOYSA-N
 -------------------------------------
 Symbolic Z-matrix:
 Charge =  0 Multiplicity = 1

 SCF Done:  E(RB-P86) =  -229.180682178     A.U. after   12 cycles
 SCF Done:  E(RB-P86) =  -229.189332529     A.U. after   10 cycles
 SCF Done:  E(RB-P86) =  -229.189946063     A.U. after   10 cycles
 SCF Done:  E(RB-P86) =  -229.190018938     A.U. after    9 cycles
 SCF Done:  E(RB-P86) =  -229.190005874     A.U. after    9 cycles
 SCF Done:  E(RB-P86) =  -229.190031374     A.U. after    9 cycles
 Optimization completed.
    -- Stationary point found.
 Normal termination of Gaussian 16 at Mon Feb 22 21:18:40 2021.
 Gaussian 16:  ES64L-G16RevC.01  3-Jul-2019

 ---------------------------------------------------------
 # BP86/TZVP SCRF=COSMORS geom=CHECKPOINT guess=CHECKPOINT
 ---------------------------------------------------------

 -------------------------------------------
 COSMO-file for #QTBSBXVTEAMEQO-UHFFFAOYSA-N
 -------------------------------------------
 Structure from the checkpoint file:  "QTBSBXVTEAMEQO-UHFFFAOYSA-N.chk"
 Charge =  0 Multiplicity = 1

                         Standard orientation:
 ---------------------------------------------------------------------
 Center     Atomic      Atomic             Coordinates (Angstroms)
 Number     Number       Type             X           Y           Z
 ---------------------------------------------------------------------
      1          6           0        1.392841   -0.176052   -0.000078
      2          6           0       -0.085609    0.117705   -0.000198
      3          8           0       -0.577346    1.236249    0.000022
      4          8           0       -0.841624   -1.016537   -0.000044
      5          1           0        1.845763    0.299012   -0.881726
      6          1           0        1.604788   -1.250582   -0.006990
      7          1           0        1.842627    0.286266    0.890021
      8          1           0       -1.784803   -0.742312    0.000529
 ---------------------------------------------------------------------

 SCF Done:  E(RB-P86) =  -229.191626038     A.U. after   10 cycles

 The electronic state is 1-A.
 Alpha  occ. eigenvalues --  -18.82134 -18.76845 -10.03546  -9.90549  -1.02227
 Alpha  occ. eigenvalues --   -0.93955  -0.68865  -0.55882  -0.44913  -0.43077
 Alpha  occ. eigenvalues --   -0.42462  -0.36439  -0.35333  -0.34837  -0.29216
 Alpha  occ. eigenvalues --   -0.24916
 Alpha virt. eigenvalues --   -0.04685   0.02538   0.06097   0.09637   0.11126
 Alpha virt. eigenvalues --    0.12505   0.14003   0.17306   0.20081   0.22255
 Alpha virt. eigenvalues --    0.23902   0.26876   0.30753   0.32684   0.36233

 Mulliken charges:
               1
     1  C   -0.441261
     2  C    0.250256
     3  O   -0.376051
     4  O   -0.296593
     5  H    0.184009
     6  H    0.165239
     7  H    0.184210
     8  H    0.330190
 Sum of Mulliken charges =  -0.00000

 Dipole moment (field-independent basis, Debye):
    X=              0.7561    Y=             -2.0466    Z=              0.0021  Tot=              2.1818
 Quadrupole moment (field-independent basis, Debye-Ang):
   XX=            -17.8333   YY=            -29.7365   ZZ=            -23.2396
   XY=              2.4471   XZ=              0.0003   YZ=             -0.0016

 Normal termination of Gaussian 16 at Mon Feb 22 21:18:43 2021.
