 Gaussian 16, Revision C.01,

 -------------------------------------------------------------
 #P BP86/TZVP EmpiricalDispersion=GD3 SCRF=(Solvent=Water) Opt
 -------------------------------------------------------------

 -------------------------------------
 Particle #QTBSBXVTEAMEQO-UHFFFAOYSA-M
 -------------------------------------
 Symbolic Z-matrix:
 Charge = -1 Multiplicity = 1

 SCF Done:  E(RB-P86) =  -228.711917150     A.U. after   12 cycles
 SCF Done:  E(RB-P86) =  -228.720708970     A.U. after   11 cycles
 SCF Done:  E(RB-P86) =  -228.722093608     A.U. after   11 cycles
 SCF Done:  E(RB-P86) =  -228.722184971     A.U. after   10 cycles
 SCF Done:  E(RB-P86) =  -228.722192300     A.U. after    9 cycles
 SCF Done:  E(RB-P86) =  -228.722188773     A.U. after    8 cycles
 SCF Done:  E(RB-P86) =  -228.722189389     A.U. after    9 cycles
 SCF Done:  E(RB-P86) =  -228.722192675     A.U. after    9 cycles
 Optimization completed.
    -- Stationary point found.
 Normal termination of Gaussian 16 at Tue Feb 23 00:11:58 2021.
 Gaussian 16:  ES64L-G16RevC.01  3-Jul-2019

 ---------------------------------------------------------
 # BP86/TZVP SCRF=COSMORS geom=CHECKPOINT guess=CHECKPOINT
 ---------------------------------------------------------

 -------------------------------------------
 COSMO-file for #QTBSBXVTEAMEQO-UHFFFAOYSA-M
 -------------------------------------------
 Structure from the checkpoint file:  "QTBSBXVTEAMEQO-UHFFFAOYSA-M.chk"
 Charge = -1 Multiplicity = 1

                         Standard orientation:
 ---------------------------------------------------------------------
 Center     Atomic      Atomic             Coordinates (Angstroms)
 Number     Number       Type             X           Y           Z
 ---------------------------------------------------------------------
      1          6           0        1.357893   -0.049945    0.000057
      2          6           0       -0.191843   -0.000447   -0.000461
      3          8           0       -0.712565    1.160324    0.000118
      4          8           0       -0.816126   -1.107318    0.000119
      5          1           0        1.742187   -1.079742    0.000227
      6          1           0        1.745251    0.479059    0.885169
      7          1           0        1.745797    0.478978   -0.884861
 ---------------------------------------------------------------------

 SCF Done:  E(RB-P86) =  -228.732739476     A.U. after   10 cycles

 The electronic state is 1-A.
 Alpha  occ. eigenvalues --  -18.70592 -18.70440  -9.97147  -9.87797  -0.92812
 Alpha  occ. eigenvalues --   -0.84519  -0.63534  -0.43859  -0.37761  -0.37091
 Alpha  occ. eigenvalues --   -0.36925  -0.32806  -0.30689  -0.21642  -0.19825
 Alpha  occ. eigenvalues --   -0.18682
 Alpha virt. eigenvalues --    0.01329   0.04413   0.10783   0.11917   0.12285
 Alpha virt. eigenvalues --    0.14375   0.18047   0.20794   0.22336   0.24565
 Alpha virt. eigenvalues --    0.28495   0.34318   0.36427   0.39011   0.40981

 Mulliken charges:
               1
     1  C   -0.456445
     2  C    0.120295
     3  O   -0.531129
     4  O   -0.533301
     5  H    0.119611
     6  H    0.140493
     7  H    0.140476
 Sum of Mulliken charges =  -1.00000

 Dipole moment (field-independent basis, Debye):
    X=              5.2726    Y=             -0.1422    Z=             -0.0012  Tot=              5.2746
 Quadrupole moment (field-independent basis, Debye-Ang):
   XX=            -30.7877   YY=            -35.6967   ZZ=            -25.1272
   XY=             -0.1097   XZ=              0.0009   YZ=              0.0003

 Normal termination of Gaussian 16 at Tue Feb 23 00:12:01 2021.
