 Gaussian 16, Revision C.01,

 -------------------------------------------------------------
 #P BP86/TZVP EmpiricalDispersion=GD3 SCRF=(Solvent=Water) Opt
 -------------------------------------------------------------

 -------------------------------------
 Particle #QVRFXIWAQRNWEX-UHFFFAOYSA-M
 -------------------------------------
 Symbolic Z-matrix:
 Charge =  0 Multiplicity = 1

 SCF Done:  E(RB-P86) =  -880.432926707     A.U. after   13 cycles
 SCF Done:  E(RB-P86) =  -880.437349804     A.U. after   11 cycles
 SCF Done:  E(RB-P86) =  -880.439424575     A.U. after   12 cycles
 SCF Done:  E(RB-P86) =  -880.439285741     A.U. after   11 cycles
 SCF Done:  E(RB-P86) =  -880.440745426     A.U. after   10 cycles
 SCF Done:  E(RB-P86) =  -880.436825079     A.U. after   13 cycles
 SCF Done:  E(RB-P86) =  -880.441212255     A.U. after   10 cycles
 SCF Done:  E(RB-P86) =  -880.441450391     A.U. after   10 cycles
 SCF Done:  E(RB-P86) =  -880.441587773     A.U. after   10 cycles
 SCF Done:  E(RB-P86) =  -880.441618478     A.U. after    9 cycles
 SCF Done:  E(RB-P86) =  -880.441634428     A.U. after    8 cycles
 SCF Done:  E(RB-P86) =  -880.441636118     A.U. after    8 cycles
 SCF Done:  E(RB-P86) =  -880.441636915     A.U. after    8 cycles
 SCF Done:  E(RB-P86) =  -880.441637379     A.U. after    7 cycles
 SCF Done:  E(RB-P86) =  -880.441637462     A.U. after    7 cycles
 SCF Done:  E(RB-P86) =  -880.441637396     A.U. after    7 cycles
 SCF Done:  E(RB-P86) =  -880.441637468     A.U. after    7 cycles
 SCF Done:  E(RB-P86) =  -880.441637282     A.U. after    7 cycles
 SCF Done:  E(RB-P86) =  -880.441637294     A.U. after    6 cycles
 Optimization completed.
    -- Stationary point found.
 Normal termination of Gaussian 16 at Sat Aug 21 09:39:12 2021.
 Gaussian 16:  ES64L-G16RevC.01  3-Jul-2019

 ---------------------------------------------------------
 # BP86/TZVP SCRF=COSMORS geom=CHECKPOINT guess=CHECKPOINT
 ---------------------------------------------------------

 -------------------------------------------
 COSMO-file for #QVRFXIWAQRNWEX-UHFFFAOYSA-M
 -------------------------------------------
 Structure from the checkpoint file:  "QVRFXIWAQRNWEX-UHFFFAOYSA-M.chk"
 Charge =  0 Multiplicity = 1

                         Standard orientation:
 ---------------------------------------------------------------------
 Center     Atomic      Atomic             Coordinates (Angstroms)
 Number     Number       Type             X           Y           Z
 ---------------------------------------------------------------------
      1          6           0       -2.788495    0.265524   -0.871389
      2          7           0       -1.684357   -0.537650   -0.339457
      3          6           0       -1.657572   -1.152411    0.901354
      4          6           0       -0.389398   -1.632563    1.085027
      5          7           0        0.336671   -1.301642   -0.049533
      6          6           0        1.784915   -1.475214   -0.233647
      7          6           0        2.538632   -0.181608    0.118548
      8          8           0        2.203739    0.880577   -0.764827
      9          6           0       -0.461791   -0.617647   -0.888673
     10         17           0       -0.118130    2.339603    0.565117
     11          1           0       -2.749163    0.254534   -1.966084
     12          1           0       -3.737100   -0.165534   -0.534069
     13          1           0       -2.672621    1.293152   -0.499496
     14          1           0       -2.535654   -1.202653    1.533718
     15          1           0        0.050926   -2.188626    1.903831
     16          1           0        1.964521   -1.746047   -1.282268
     17          1           0        2.104955   -2.308459    0.405522
     18          1           0        2.329799    0.085134    1.170363
     19          1           0        3.616265   -0.394093    0.026014
     20          1           0        1.442322    1.391246   -0.350702
     21          1           0       -0.159894   -0.197962   -1.839588
 ---------------------------------------------------------------------

 SCF Done:  E(RB-P86) =  -880.429380844     A.U. after   10 cycles

 The electronic state is 1-A.
 Alpha  occ. eigenvalues -- -100.65641 -18.76231 -14.09809 -14.09768  -9.99375
 Alpha  occ. eigenvalues --   -9.95498  -9.95425  -9.95024  -9.94866  -9.94291
 Alpha  occ. eigenvalues --   -9.09507  -6.91399  -6.91285  -6.91277  -0.99437
 Alpha  occ. eigenvalues --   -0.92997  -0.88309  -0.74078  -0.71011  -0.66594
 Alpha  occ. eigenvalues --   -0.64707  -0.60210  -0.58059  -0.55748  -0.50526
 Alpha  occ. eigenvalues --   -0.47274  -0.45520  -0.44211  -0.43129  -0.42670
 Alpha  occ. eigenvalues --   -0.41488  -0.40457  -0.37650  -0.37077  -0.36255
 Alpha  occ. eigenvalues --   -0.35755  -0.29564  -0.28467  -0.24802  -0.23620
 Alpha  occ. eigenvalues --   -0.22584  -0.22288  -0.21913
 Alpha virt. eigenvalues --   -0.05922  -0.03050   0.03310   0.04383   0.04958
 Alpha virt. eigenvalues --    0.05872   0.06534   0.07065   0.07977   0.08387
 Alpha virt. eigenvalues --    0.09022   0.09794   0.10065   0.10815   0.11570

 Mulliken charges:
               1
     1  C   -0.283236
     2  N    0.006446
     3  C   -0.093771
     4  C   -0.058583
     5  N   -0.032035
     6  C   -0.143764
     7  C   -0.181535
     8  O   -0.423320
     9  C   -0.025544
    10  Cl  -0.812212
    11  H    0.181595
    12  H    0.181112
    13  H    0.168840
    14  H    0.199504
    15  H    0.193466
    16  H    0.187964
    17  H    0.179780
    18  H    0.148879
    19  H    0.164403
    20  H    0.240097
    21  H    0.201914
 Sum of Mulliken charges =  -0.00000

 Dipole moment (field-independent basis, Debye):
    X=             -3.8614    Y=            -13.6710    Z=             -1.6033  Tot=             14.2961
 Quadrupole moment (field-independent basis, Debye-Ang):
   XX=            -52.6657   YY=            -85.3554   ZZ=            -63.3834
   XY=             -6.2692   XZ=              5.6411   YZ=             -7.8647

 Normal termination of Gaussian 16 at Sat Aug 21 09:39:26 2021.
