 Gaussian 16, Revision C.01,

 -------------------------------------------------------------
 #P BP86/TZVP EmpiricalDispersion=GD3 SCRF=(Solvent=Water) Opt
 -------------------------------------------------------------

 -------------------------------------
 Particle #REACWASHYHDPSQ-UHFFFAOYSA-N
 -------------------------------------
 Symbolic Z-matrix:
 Charge =  1 Multiplicity = 1

 SCF Done:  E(RB-P86) =  -406.104807110     A.U. after   13 cycles
 SCF Done:  E(RB-P86) =  -406.125507129     A.U. after   11 cycles
 SCF Done:  E(RB-P86) =  -406.126734683     A.U. after   10 cycles
 SCF Done:  E(RB-P86) =  -406.126845398     A.U. after   10 cycles
 SCF Done:  E(RB-P86) =  -406.126903621     A.U. after   10 cycles
 SCF Done:  E(RB-P86) =  -406.126921247     A.U. after    9 cycles
 SCF Done:  E(RB-P86) =  -406.126923544     A.U. after    8 cycles
 SCF Done:  E(RB-P86) =  -406.126924795     A.U. after    8 cycles
 SCF Done:  E(RB-P86) =  -406.126924697     A.U. after    7 cycles
 Optimization completed.
    -- Stationary point found.
 Normal termination of Gaussian 16 at Tue Feb 23 00:14:36 2021.
 Gaussian 16:  ES64L-G16RevC.01  3-Jul-2019

 ---------------------------------------------------------
 # BP86/TZVP SCRF=COSMORS geom=CHECKPOINT guess=CHECKPOINT
 ---------------------------------------------------------

 -------------------------------------------
 COSMO-file for #REACWASHYHDPSQ-UHFFFAOYSA-N
 -------------------------------------------
 Structure from the checkpoint file:  "REACWASHYHDPSQ-UHFFFAOYSA-N.chk"
 Charge =  1 Multiplicity = 1

                         Standard orientation:
 ---------------------------------------------------------------------
 Center     Atomic      Atomic             Coordinates (Angstroms)
 Number     Number       Type             X           Y           Z
 ---------------------------------------------------------------------
      1          6           0       -3.464088   -0.939506   -0.837444
      2          6           0       -2.232949   -0.651103    0.030106
      3          6           0       -1.900506    0.844867    0.079923
      4          6           0       -0.703169    1.194022    0.969546
      5          7           0        0.553198    0.549590    0.475470
      6          6           0        1.169495    1.067784   -0.618805
      7          6           0        2.300445    0.463394   -1.144038
      8          6           0        2.802228   -0.694381   -0.540378
      9          6           0        2.154775   -1.212474    0.584357
     10          6           0        1.026351   -0.571872    1.076320
     11          1           0       -3.689107   -2.015862   -0.863049
     12          1           0       -3.303620   -0.603277   -1.873991
     13          1           0       -4.352420   -0.417059   -0.448991
     14          1           0       -1.369365   -1.212394   -0.365809
     15          1           0       -2.402339   -1.020529    1.056138
     16          1           0       -1.724136    1.228683   -0.939112
     17          1           0       -2.759118    1.408934    0.479582
     18          1           0       -0.519542    2.275762    0.994471
     19          1           0       -0.853381    0.846770    1.999475
     20          1           0        0.727241    1.968984   -1.039962
     21          1           0        2.776810    0.903658   -2.018682
     22          1           0        3.690601   -1.183695   -0.940324
     23          1           0        2.513388   -2.109665    1.086454
     24          1           0        0.477109   -0.921825    1.947982
 ---------------------------------------------------------------------

 SCF Done:  E(RB-P86) =  -406.113623809     A.U. after   11 cycles

 The electronic state is 1-A.
 Alpha  occ. eigenvalues --  -14.12366  -9.98387  -9.98320  -9.95687  -9.95092
 Alpha  occ. eigenvalues --   -9.94409  -9.94394  -9.90714  -9.89658  -9.88449
 Alpha  occ. eigenvalues --   -0.95894  -0.79120  -0.74647  -0.73332  -0.68046
 Alpha  occ. eigenvalues --   -0.62920  -0.61846  -0.58559  -0.53705  -0.50593
 Alpha  occ. eigenvalues --   -0.48683  -0.46379  -0.44810  -0.43672  -0.42791
 Alpha  occ. eigenvalues --   -0.41267  -0.38996  -0.37975  -0.36182  -0.35997
 Alpha  occ. eigenvalues --   -0.34565  -0.33179  -0.31893  -0.30045  -0.29297
 Alpha  occ. eigenvalues --   -0.29074  -0.28107
 Alpha virt. eigenvalues --   -0.11856  -0.08715   0.01965   0.03330   0.03897
 Alpha virt. eigenvalues --    0.04443   0.05082   0.06272   0.07235   0.07384
 Alpha virt. eigenvalues --    0.08229   0.09202   0.09513   0.09676   0.10683

 Mulliken charges:
               1
     1  C   -0.429169
     2  C   -0.261280
     3  C   -0.259187
     4  C   -0.223159
     5  N   -0.036214
     6  C   -0.020193
     7  C   -0.044417
     8  C   -0.134483
     9  C   -0.056023
    10  C   -0.006237
    11  H    0.150077
    12  H    0.136297
    13  H    0.138492
    14  H    0.154322
    15  H    0.145167
    16  H    0.167462
    17  H    0.175433
    18  H    0.213026
    19  H    0.202526
    20  H    0.198401
    21  H    0.205881
    22  H    0.181909
    23  H    0.205543
    24  H    0.195826
 Sum of Mulliken charges =   1.00000

 Dipole moment (field-independent basis, Debye):
    X=              4.1424    Y=              1.3162    Z=              1.0712  Tot=              4.4765
 Quadrupole moment (field-independent basis, Debye-Ang):
   XX=            -42.0480   YY=            -50.0599   ZZ=            -51.2614
   XY=             -5.4481   XZ=             -5.6477   YZ=             -3.7353

 Normal termination of Gaussian 16 at Tue Feb 23 00:14:51 2021.
