 Gaussian 16, Revision C.01,

 -------------------------------------------------------------
 #P BP86/TZVP EmpiricalDispersion=GD3 SCRF=(Solvent=Water) Opt
 -------------------------------------------------------------

 -------------------------------------
 Particle #SGMZJAMFUVOLNK-UHFFFAOYSA-M
 -------------------------------------
 Symbolic Z-matrix:
 Charge =  0 Multiplicity = 1

 SCF Done:  E(RB-P86) =  -789.328277333     A.U. after   12 cycles
 SCF Done:  E(RB-P86) =  -789.338084880     A.U. after   11 cycles
 SCF Done:  E(RB-P86) =  -789.340650119     A.U. after   11 cycles
 SCF Done:  E(RB-P86) =  -789.341687012     A.U. after   10 cycles
 SCF Done:  E(RB-P86) =  -789.342373543     A.U. after   10 cycles
 SCF Done:  E(RB-P86) =  -789.342713855     A.U. after   10 cycles
 SCF Done:  E(RB-P86) =  -789.342862643     A.U. after    9 cycles
 SCF Done:  E(RB-P86) =  -789.343143748     A.U. after   10 cycles
 SCF Done:  E(RB-P86) =  -789.343325250     A.U. after    9 cycles
 SCF Done:  E(RB-P86) =  -789.343603685     A.U. after    9 cycles
 SCF Done:  E(RB-P86) =  -789.343857527     A.U. after    9 cycles
 SCF Done:  E(RB-P86) =  -789.343866472     A.U. after    9 cycles
 SCF Done:  E(RB-P86) =  -789.343820673     A.U. after    9 cycles
 SCF Done:  E(RB-P86) =  -789.343850793     A.U. after    9 cycles
 SCF Done:  E(RB-P86) =  -789.343866278     A.U. after    8 cycles
 SCF Done:  E(RB-P86) =  -789.343865415     A.U. after    8 cycles
 SCF Done:  E(RB-P86) =  -789.343863547     A.U. after    8 cycles
 SCF Done:  E(RB-P86) =  -789.343869079     A.U. after    8 cycles
 SCF Done:  E(RB-P86) =  -789.343869974     A.U. after    7 cycles
 Optimization completed.
    -- Stationary point found.
 Normal termination of Gaussian 16 at Sat Aug 21 09:44:39 2021.
 Gaussian 16:  ES64L-G16RevC.01  3-Jul-2019

 ---------------------------------------------------------
 # BP86/TZVP SCRF=COSMORS geom=CHECKPOINT guess=CHECKPOINT
 ---------------------------------------------------------

 -------------------------------------------
 COSMO-file for #SGMZJAMFUVOLNK-UHFFFAOYSA-M
 -------------------------------------------
 Structure from the checkpoint file:  "SGMZJAMFUVOLNK-UHFFFAOYSA-M.chk"
 Charge =  0 Multiplicity = 1

                         Standard orientation:
 ---------------------------------------------------------------------
 Center     Atomic      Atomic             Coordinates (Angstroms)
 Number     Number       Type             X           Y           Z
 ---------------------------------------------------------------------
      1          6           0       -2.011314   -1.501377   -0.677989
      2          7           0       -1.383240   -0.317388    0.018423
      3          6           0       -0.633479   -0.817039    1.235456
      4          6           0       -2.467914    0.633642    0.451808
      5          6           0       -0.430732    0.350299   -0.980866
      6          6           0        0.190241    1.680500   -0.555069
      7          8           0        1.011646    1.618220    0.605569
      8         17           0        2.852779   -0.748197   -0.061570
      9          1           0       -1.212918   -2.173496   -1.011382
     10          1           0       -2.590303   -1.143536   -1.536527
     11          1           0       -2.667345   -2.017959    0.031360
     12          1           0       -1.329950   -1.399375    1.849560
     13          1           0       -0.247923    0.048213    1.780642
     14          1           0        0.209161   -1.430616    0.894560
     15          1           0       -2.019168    1.446479    1.030970
     16          1           0       -3.181231    0.084854    1.076769
     17          1           0       -2.970030    1.029301   -0.438241
     18          1           0       -1.013584    0.503874   -1.900000
     19          1           0        0.364706   -0.384997   -1.168155
     20          1           0       -0.581880    2.442150   -0.370988
     21          1           0        0.759381    2.016655   -1.445372
     22          1           0        1.692539    0.897605    0.439939
 ---------------------------------------------------------------------

 SCF Done:  E(RB-P86) =  -789.329364603     A.U. after   10 cycles

 The electronic state is 1-A.
 Alpha  occ. eigenvalues -- -100.65562 -18.76243 -14.13220  -9.95092  -9.94820
 Alpha  occ. eigenvalues --   -9.94318  -9.94279  -9.93642  -9.09439  -6.91317
 Alpha  occ. eigenvalues --   -6.91222  -6.91215  -0.93877  -0.92372  -0.70282
 Alpha  occ. eigenvalues --   -0.68007  -0.67549  -0.64723  -0.60561  -0.55226
 Alpha  occ. eigenvalues --   -0.48675  -0.47237  -0.46681  -0.42860  -0.41496
 Alpha  occ. eigenvalues --   -0.39899  -0.38093  -0.37088  -0.35736  -0.35667
 Alpha  occ. eigenvalues --   -0.35514  -0.35159  -0.34032  -0.30009  -0.23357
 Alpha  occ. eigenvalues --   -0.22545  -0.22240  -0.22024
 Alpha virt. eigenvalues --    0.00699   0.03430   0.04622   0.05368   0.05486
 Alpha virt. eigenvalues --    0.05809   0.06383   0.07027   0.08569   0.09110
 Alpha virt. eigenvalues --    0.10341   0.10708   0.11789   0.12411   0.12982

 Mulliken charges:
               1
     1  C   -0.282315
     2  N   -0.175673
     3  C   -0.289307
     4  C   -0.318133
     5  C   -0.233630
     6  C   -0.170276
     7  O   -0.400990
     8  Cl  -0.829889
     9  H    0.193662
    10  H    0.193533
    11  H    0.194736
    12  H    0.186023
    13  H    0.191910
    14  H    0.171695
    15  H    0.206774
    16  H    0.195700
    17  H    0.200410
    18  H    0.198726
    19  H    0.195428
    20  H    0.175036
    21  H    0.160463
    22  H    0.236119
 Sum of Mulliken charges =  -0.00000

 Dipole moment (field-independent basis, Debye):
    X=            -18.4575    Y=              0.1015    Z=             -1.5917  Tot=             18.5263
 Quadrupole moment (field-independent basis, Debye-Ang):
   XX=            -77.8212   YY=            -59.8255   ZZ=            -55.6010
   XY=              8.4923   XZ=             -0.4259   YZ=             -3.8301

 Normal termination of Gaussian 16 at Sat Aug 21 09:44:53 2021.
