 Gaussian 16, Revision C.01,

 -------------------------------------------------------------
 #P BP86/TZVP EmpiricalDispersion=GD3 SCRF=(Solvent=Water) Opt
 -------------------------------------------------------------

 -------------------------------------
 Particle #SRBFZHDQGSBBOR-SKNVOMKLSA-N
 -------------------------------------
 Symbolic Z-matrix:
 Charge =  0 Multiplicity = 1

 SCF Done:  E(RB-P86) =  -572.892375292     A.U. after   12 cycles
 SCF Done:  E(RB-P86) =  -572.903462593     A.U. after   11 cycles
 SCF Done:  E(RB-P86) =  -572.904370680     A.U. after   11 cycles
 SCF Done:  E(RB-P86) =  -572.904559622     A.U. after    9 cycles
 SCF Done:  E(RB-P86) =  -572.904724063     A.U. after   10 cycles
 SCF Done:  E(RB-P86) =  -572.904762411     A.U. after    9 cycles
 SCF Done:  E(RB-P86) =  -572.904775318     A.U. after    9 cycles
 SCF Done:  E(RB-P86) =  -572.904778018     A.U. after    8 cycles
 SCF Done:  E(RB-P86) =  -572.904779136     A.U. after    8 cycles
 SCF Done:  E(RB-P86) =  -572.904779563     A.U. after    7 cycles
 SCF Done:  E(RB-P86) =  -572.904779797     A.U. after    7 cycles
 Optimization completed.
    -- Stationary point found.
 Normal termination of Gaussian 16 at Mon Feb 22 21:21:40 2021.
 Gaussian 16:  ES64L-G16RevC.01  3-Jul-2019

 ---------------------------------------------------------
 # BP86/TZVP SCRF=COSMORS geom=CHECKPOINT guess=CHECKPOINT
 ---------------------------------------------------------

 -------------------------------------------
 COSMO-file for #SRBFZHDQGSBBOR-SKNVOMKLSA-N
 -------------------------------------------
 Structure from the checkpoint file:  "SRBFZHDQGSBBOR-SKNVOMKLSA-N.chk"
 Charge =  0 Multiplicity = 1

                         Standard orientation:
 ---------------------------------------------------------------------
 Center     Atomic      Atomic             Coordinates (Angstroms)
 Number     Number       Type             X           Y           Z
 ---------------------------------------------------------------------
      1          8           0       -1.811542   -0.756039    1.108771
      2          6           0       -1.511568   -0.607160   -0.269074
      3          8           0       -0.664639   -1.653177   -0.761776
      4          6           0        0.615440   -1.701813   -0.087452
      5          6           0        1.387330   -0.388512   -0.275226
      6          8           0        2.598430   -0.374405    0.506127
      7          6           0        0.534572    0.779976    0.212503
      8          8           0        1.130761    2.052655   -0.099275
      9          6           0       -0.828545    0.753380   -0.479029
     10          8           0       -1.689776    1.797452   -0.011256
     11          1           0       -2.360384   -1.556505    1.203130
     12          1           0       -2.421218   -0.677905   -0.887748
     13          1           0        0.480702   -1.895096    0.990596
     14          1           0        1.158445   -2.544445   -0.535446
     15          1           0        1.612616   -0.234087   -1.346218
     16          1           0        3.281757   -0.864314    0.015218
     17          1           0        0.387364    0.681805    1.304656
     18          1           0        1.999699    2.069662    0.343447
     19          1           0       -0.660001    0.853007   -1.568981
     20          1           0       -1.168223    2.620764   -0.069707
 ---------------------------------------------------------------------

 SCF Done:  E(RB-P86) =  -572.893591154     A.U. after   11 cycles

 The electronic state is 1-A.
 Alpha  occ. eigenvalues --  -18.79204 -18.78663 -18.78282 -18.78108 -18.77966
 Alpha  occ. eigenvalues --  -10.00318  -9.95825  -9.95532  -9.95458  -9.94576
 Alpha  occ. eigenvalues --   -0.99154  -0.95938  -0.94745  -0.93185  -0.92708
 Alpha  occ. eigenvalues --   -0.72005  -0.69186  -0.59558  -0.58359  -0.53024
 Alpha  occ. eigenvalues --   -0.49979  -0.48887  -0.47820  -0.45245  -0.43819
 Alpha  occ. eigenvalues --   -0.41882  -0.40474  -0.38630  -0.37201  -0.36566
 Alpha  occ. eigenvalues --   -0.34950  -0.33233  -0.31983  -0.30148  -0.28232
 Alpha  occ. eigenvalues --   -0.27056  -0.25678  -0.24753  -0.24220  -0.23012
 Alpha virt. eigenvalues --    0.00153   0.02040   0.02892   0.04304   0.05294
 Alpha virt. eigenvalues --    0.06848   0.08593   0.08750   0.09871   0.10654
 Alpha virt. eigenvalues --    0.11653   0.12797   0.13690   0.14037   0.14884

 Mulliken charges:
               1
     1  O   -0.361404
     2  C   -0.051023
     3  O   -0.251960
     4  C   -0.131341
     5  C   -0.134796
     6  O   -0.404561
     7  C   -0.076261
     8  O   -0.407803
     9  C   -0.037915
    10  O   -0.395429
    11  H    0.315988
    12  H    0.186059
    13  H    0.140757
    14  H    0.173868
    15  H    0.160825
    16  H    0.323787
    17  H    0.162364
    18  H    0.313727
    19  H    0.166222
    20  H    0.308897
 Sum of Mulliken charges =  -0.00000

 Dipole moment (field-independent basis, Debye):
    X=              2.8730    Y=             -2.4898    Z=             -1.2720  Tot=              4.0089
 Quadrupole moment (field-independent basis, Debye-Ang):
   XX=            -51.7025   YY=            -56.9872   ZZ=            -62.2137
   XY=              2.4950   XZ=             -2.2229   YZ=             -1.4349

 Normal termination of Gaussian 16 at Mon Feb 22 21:21:53 2021.
