 Gaussian 16, Revision C.01,

 -------------------------------------------------------------
 #P BP86/TZVP EmpiricalDispersion=GD3 SCRF=(Solvent=Water) Opt
 -------------------------------------------------------------

 -------------------------------------
 Particle #SRBFZHDQGSBBOR-SQOUGZDYSA-N
 -------------------------------------
 Symbolic Z-matrix:
 Charge =  0 Multiplicity = 1

 SCF Done:  E(RB-P86) =  -572.894637320     A.U. after   12 cycles
 SCF Done:  E(RB-P86) =  -572.904669557     A.U. after   11 cycles
 SCF Done:  E(RB-P86) =  -572.905673481     A.U. after   10 cycles
 SCF Done:  E(RB-P86) =  -572.906212377     A.U. after   10 cycles
 SCF Done:  E(RB-P86) =  -572.906519227     A.U. after   10 cycles
 SCF Done:  E(RB-P86) =  -572.906630495     A.U. after    9 cycles
 SCF Done:  E(RB-P86) =  -572.906658348     A.U. after    9 cycles
 SCF Done:  E(RB-P86) =  -572.906667357     A.U. after    9 cycles
 SCF Done:  E(RB-P86) =  -572.906674452     A.U. after    8 cycles
 SCF Done:  E(RB-P86) =  -572.906676430     A.U. after    8 cycles
 SCF Done:  E(RB-P86) =  -572.906676627     A.U. after    7 cycles
 Optimization completed.
    -- Stationary point found.
 Normal termination of Gaussian 16 at Mon Feb 22 21:21:57 2021.
 Gaussian 16:  ES64L-G16RevC.01  3-Jul-2019

 ---------------------------------------------------------
 # BP86/TZVP SCRF=COSMORS geom=CHECKPOINT guess=CHECKPOINT
 ---------------------------------------------------------

 -------------------------------------------
 COSMO-file for #SRBFZHDQGSBBOR-SQOUGZDYSA-N
 -------------------------------------------
 Structure from the checkpoint file:  "SRBFZHDQGSBBOR-SQOUGZDYSA-N.chk"
 Charge =  0 Multiplicity = 1

                         Standard orientation:
 ---------------------------------------------------------------------
 Center     Atomic      Atomic             Coordinates (Angstroms)
 Number     Number       Type             X           Y           Z
 ---------------------------------------------------------------------
      1          8           0        2.060520   -0.842547   -0.773702
      2          6           0        1.276936   -0.773230    0.430171
      3          6           0        0.182067   -1.833264    0.377203
      4          8           0       -0.825967   -1.557005   -0.625053
      5          6           0       -1.465617   -0.290667   -0.437963
      6          8           0       -2.149930   -0.200711    0.802828
      7          6           0       -0.409450    0.831402   -0.496365
      8          8           0       -0.951473    2.148910   -0.303188
      9          6           0        0.646228    0.617891    0.586567
     10          8           0        1.704564    1.587826    0.472097
     11          1           0        2.539503    0.009850   -0.819701
     12          1           0        1.914674   -0.976515    1.313025
     13          1           0        0.612130   -2.805139    0.102593
     14          1           0       -0.286283   -1.918094    1.372600
     15          1           0       -2.165594   -0.209773   -1.286912
     16          1           0       -2.893201   -0.831127    0.773337
     17          1           0        0.085066    0.752444   -1.479490
     18          1           0       -1.325349    2.451395   -1.149704
     19          1           0        0.165651    0.686328    1.579232
     20          1           0        1.270703    2.436046    0.253484
 ---------------------------------------------------------------------

 SCF Done:  E(RB-P86) =  -572.894781258     A.U. after   11 cycles

 The electronic state is 1-A.
 Alpha  occ. eigenvalues --  -18.78966 -18.78555 -18.78533 -18.78233 -18.77491
 Alpha  occ. eigenvalues --  -10.00033  -9.95709  -9.95639  -9.95614  -9.94775
 Alpha  occ. eigenvalues --   -0.99041  -0.96134  -0.94721  -0.93001  -0.92398
 Alpha  occ. eigenvalues --   -0.71832  -0.69363  -0.59380  -0.58844  -0.52792
 Alpha  occ. eigenvalues --   -0.49626  -0.48563  -0.47807  -0.45340  -0.43838
 Alpha  occ. eigenvalues --   -0.41618  -0.41047  -0.38630  -0.37646  -0.35789
 Alpha  occ. eigenvalues --   -0.34780  -0.32921  -0.32393  -0.30178  -0.28796
 Alpha  occ. eigenvalues --   -0.26616  -0.25935  -0.24880  -0.23961  -0.22866
 Alpha virt. eigenvalues --    0.00842   0.02131   0.02945   0.04428   0.05878
 Alpha virt. eigenvalues --    0.07255   0.08208   0.08709   0.10007   0.10332
 Alpha virt. eigenvalues --    0.11173   0.11762   0.13186   0.13736   0.14884

 Mulliken charges:
               1
     1  O   -0.398953
     2  C   -0.048646
     3  C   -0.147891
     4  O   -0.239988
     5  C   -0.079116
     6  O   -0.352887
     7  C   -0.071351
     8  O   -0.408515
     9  C   -0.132795
    10  O   -0.407126
    11  H    0.302447
    12  H    0.176849
    13  H    0.168505
    14  H    0.155563
    15  H    0.186330
    16  H    0.315505
    17  H    0.168305
    18  H    0.325681
    19  H    0.178743
    20  H    0.309339
 Sum of Mulliken charges =  -0.00000

 Dipole moment (field-independent basis, Debye):
    X=             -2.6129    Y=              1.0598    Z=             -0.7431  Tot=              2.9160
 Quadrupole moment (field-independent basis, Debye-Ang):
   XX=            -57.1521   YY=            -57.7644   ZZ=            -58.4792
   XY=              2.9432   XZ=              4.3207   YZ=            -11.9172

 Normal termination of Gaussian 16 at Mon Feb 22 21:22:09 2021.
