 Gaussian 16, Revision C.01,

 -------------------------------------------------------------
 #P BP86/TZVP EmpiricalDispersion=GD3 SCRF=(Solvent=Water) Opt
 -------------------------------------------------------------

 -------------------------------------
 Particle #SYZCZDCAEVUSPM-UHFFFAOYSA-M
 -------------------------------------
 Symbolic Z-matrix:
 Charge =  0 Multiplicity = 1

 SCF Done:  E(RB-P86) =  -3575.46192306     A.U. after   12 cycles
 SCF Done:  E(RB-P86) =  -3575.46389892     A.U. after   10 cycles
 SCF Done:  E(RB-P86) =  -3575.47532000     A.U. after   10 cycles
 SCF Done:  E(RB-P86) =  -3575.46923374     A.U. after   10 cycles
 SCF Done:  E(RB-P86) =  -3575.47885331     A.U. after   10 cycles
 SCF Done:  E(RB-P86) =  -3575.47913439     A.U. after   10 cycles
 SCF Done:  E(RB-P86) =  -3575.48066095     A.U. after   10 cycles
 SCF Done:  E(RB-P86) =  -3575.48062230     A.U. after   10 cycles
 SCF Done:  E(RB-P86) =  -3575.48204927     A.U. after    9 cycles
 SCF Done:  E(RB-P86) =  -3575.48247286     A.U. after    9 cycles
 SCF Done:  E(RB-P86) =  -3575.48291412     A.U. after    9 cycles
 SCF Done:  E(RB-P86) =  -3575.48291986     A.U. after    7 cycles
 SCF Done:  E(RB-P86) =  -3575.48292404     A.U. after    7 cycles
 SCF Done:  E(RB-P86) =  -3575.48292629     A.U. after    7 cycles
 SCF Done:  E(RB-P86) =  -3575.48292944     A.U. after    7 cycles
 SCF Done:  E(RB-P86) =  -3575.48293159     A.U. after    7 cycles
 SCF Done:  E(RB-P86) =  -3575.48293274     A.U. after    7 cycles
 SCF Done:  E(RB-P86) =  -3575.48293345     A.U. after    7 cycles
 SCF Done:  E(RB-P86) =  -3575.48293388     A.U. after    6 cycles
 Optimization completed.
    -- Stationary point found.
 Normal termination of Gaussian 16 at Sat Aug 21 11:05:06 2021.
 Gaussian 16:  ES64L-G16RevC.01  3-Jul-2019

 ---------------------------------------------------------
 # BP86/TZVP SCRF=COSMORS geom=CHECKPOINT guess=CHECKPOINT
 ---------------------------------------------------------

 -------------------------------------------
 COSMO-file for #SYZCZDCAEVUSPM-UHFFFAOYSA-M
 -------------------------------------------
 Structure from the checkpoint file:  "SYZCZDCAEVUSPM-UHFFFAOYSA-M.chk"
 Charge =  0 Multiplicity = 1

                         Standard orientation:
 ---------------------------------------------------------------------
 Center     Atomic      Atomic             Coordinates (Angstroms)
 Number     Number       Type             X           Y           Z
 ---------------------------------------------------------------------
      1          6           0        5.879110   -1.482134    0.398867
      2          6           0        4.458429   -1.996057    0.139956
      3          6           0        3.629334   -2.108918    1.428643
      4          6           0        2.288018   -2.843744    1.257481
      5          6           0        1.287346   -2.174365    0.292999
      6          6           0        0.705131   -0.909431    0.917784
      7          7           0       -0.091563   -0.001751   -0.031753
      8          6           0       -1.213587   -0.862641   -0.626949
      9          6           0       -2.317668   -0.151975   -1.398191
     10          6           0       -3.325857   -1.171867   -1.970469
     11          6           0       -2.727583   -2.203557   -2.954625
     12          6           0       -2.412862   -3.572748   -2.328294
     13          6           0       -1.735780   -4.532935   -3.312443
     14          6           0       -0.660183    1.125429    0.847851
     15          6           0       -1.056356    2.425573    0.152060
     16          6           0       -1.823554    3.320122    1.140129
     17          6           0       -2.179272    4.698300    0.556238
     18          6           0       -3.025807    4.662291   -0.729725
     19          6           0       -4.353547    3.908473   -0.578387
     20          6           0        0.791435    0.537060   -1.148463
     21          6           0        2.053811    1.253533   -0.680634
     22          6           0        2.791683    1.869464   -1.879521
     23          6           0        3.973026    2.778979   -1.500905
     24          6           0        5.094774    2.113268   -0.672694
     25          6           0        4.908826    2.204669    0.849904
     26         35           0       -2.635651   -1.572640    2.771890
     27          1           0        6.445097   -1.363824   -0.537587
     28          1           0        5.857294   -0.504072    0.903250
     29          1           0        6.436808   -2.177549    1.046371
     30          1           0        3.955337   -1.326009   -0.578757
     31          1           0        4.502795   -2.985553   -0.348720
     32          1           0        4.222053   -2.654161    2.183531
     33          1           0        3.473801   -1.099880    1.851369
     34          1           0        2.491239   -3.859903    0.880819
     35          1           0        1.807287   -2.971672    2.242500
     36          1           0        0.481235   -2.887952    0.069280
     37          1           0        1.792158   -1.954551   -0.660197
     38          1           0        0.000474   -1.165476    1.724586
     39          1           0        1.494474   -0.277596    1.341049
     40          1           0       -0.702235   -1.580679   -1.278115
     41          1           0       -1.649527   -1.399349    0.230218
     42          1           0       -2.864395    0.531985   -0.732805
     43          1           0       -1.903970    0.442967   -2.228277
     44          1           0       -4.116714   -0.591793   -2.470281
     45          1           0       -3.817485   -1.699648   -1.134448
     46          1           0       -3.429434   -2.363917   -3.790039
     47          1           0       -1.811231   -1.789177   -3.414789
     48          1           0       -3.353526   -4.016080   -1.957768
     49          1           0       -1.773642   -3.448588   -1.437663
     50          1           0       -1.540725   -5.513749   -2.852630
     51          1           0       -0.772072   -4.125754   -3.658883
     52          1           0       -2.366165   -4.696771   -4.201470
     53          1           0       -1.510724    0.665514    1.374720
     54          1           0        0.112183    1.337142    1.599287
     55          1           0       -0.165667    2.966024   -0.205449
     56          1           0       -1.683452    2.235206   -0.727021
     57          1           0       -1.217860    3.462859    2.051310
     58          1           0       -2.740596    2.797728    1.461231
     59          1           0       -2.724327    5.270688    1.327007
     60          1           0       -1.246726    5.254817    0.357170
     61          1           0       -2.439773    4.215472   -1.551351
     62          1           0       -3.228436    5.701223   -1.039750
     63          1           0       -4.194903    2.837774   -0.375369
     64          1           0       -4.960027    3.981771   -1.493823
     65          1           0       -4.947497    4.317903    0.254932
     66          1           0        1.046119   -0.319135   -1.786710
     67          1           0        0.162113    1.208505   -1.744359
     68          1           0        1.808264    2.043301    0.046559
     69          1           0        2.722812    0.545312   -0.170829
     70          1           0        2.075394    2.455763   -2.481098
     71          1           0        3.152757    1.054617   -2.531643
     72          1           0        4.399943    3.167677   -2.440082
     73          1           0        3.591222    3.659401   -0.953202
     74          1           0        5.196585    1.056282   -0.976209
     75          1           0        6.054264    2.591717   -0.929620
     76          1           0        5.780978    1.794997    1.382522
     77          1           0        4.791325    3.254358    1.163686
     78          1           0        4.022622    1.655736    1.199991
 ---------------------------------------------------------------------

 SCF Done:  E(RB-P86) =  -3575.38328757     A.U. after   11 cycles

 The electronic state is 1-A.
 Alpha  occ. eigenvalues -- -481.06247 -61.75455 -55.66578 -55.66577 -55.66576
 Alpha  occ. eigenvalues --  -14.11999  -9.94405  -9.94306  -9.94187  -9.93982
 Alpha  occ. eigenvalues --   -9.90190  -9.90137  -9.90112  -9.89985  -9.89496
 Alpha  occ. eigenvalues --   -9.89473  -9.89417  -9.89322  -9.88877  -9.88870
 Alpha  occ. eigenvalues --   -9.88866  -9.88858  -9.88823  -9.88820  -9.88814
 Alpha  occ. eigenvalues --   -9.88777  -9.88097  -9.88021  -9.87995  -9.87973
 Alpha  occ. eigenvalues --   -8.32817  -6.19849  -6.19846  -6.19842  -2.40322
 Alpha  occ. eigenvalues --   -2.40322  -2.40319  -2.40318  -2.40317  -0.92050
 Alpha  occ. eigenvalues --   -0.74451  -0.74358  -0.73935  -0.73341  -0.70512
 Alpha  occ. eigenvalues --   -0.70456  -0.70222  -0.68818  -0.65560  -0.65234
 Alpha  occ. eigenvalues --   -0.64914  -0.62634  -0.61655  -0.60588  -0.59460
 Alpha  occ. eigenvalues --   -0.58722  -0.56117  -0.55021  -0.54185  -0.53744
 Alpha  occ. eigenvalues --   -0.52319  -0.51333  -0.50744  -0.50114  -0.49697
 Alpha  occ. eigenvalues --   -0.47884  -0.46230  -0.45192  -0.44103  -0.42433
 Alpha  occ. eigenvalues --   -0.42006  -0.41489  -0.40892  -0.40577  -0.40227
 Alpha  occ. eigenvalues --   -0.40120  -0.39173  -0.38652  -0.38220  -0.37869
 Alpha  occ. eigenvalues --   -0.37281  -0.36818  -0.36687  -0.36386  -0.36251
 Alpha  occ. eigenvalues --   -0.35406  -0.35142  -0.34710  -0.34654  -0.33867
 Alpha  occ. eigenvalues --   -0.33511  -0.33328  -0.33142  -0.32567  -0.32347
 Alpha  occ. eigenvalues --   -0.31871  -0.31619  -0.31348  -0.31164  -0.30740
 Alpha  occ. eigenvalues --   -0.30361  -0.30216  -0.29873  -0.29436  -0.28569
 Alpha  occ. eigenvalues --   -0.28374  -0.28249  -0.27979  -0.27911  -0.27871
 Alpha  occ. eigenvalues --   -0.27745  -0.27559  -0.27552  -0.27386  -0.27203
 Alpha  occ. eigenvalues --   -0.26984  -0.21173  -0.21144  -0.20859
 Alpha virt. eigenvalues --    0.00655   0.01391   0.01663   0.02369   0.02728
 Alpha virt. eigenvalues --    0.03149   0.03670   0.03847   0.04129   0.04215
 Alpha virt. eigenvalues --    0.04827   0.05373   0.05570   0.05741   0.06134

 Mulliken charges:
               1
     1  C   -0.452764
     2  C   -0.272544
     3  C   -0.295967
     4  C   -0.274553
     5  C   -0.299784
     6  C   -0.286361
     7  N   -0.108229
     8  C   -0.277607
     9  C   -0.320103
    10  C   -0.271788
    11  C   -0.321309
    12  C   -0.266533
    13  C   -0.426184
    14  C   -0.252713
    15  C   -0.299138
    16  C   -0.318940
    17  C   -0.258287
    18  C   -0.273423
    19  C   -0.455392
    20  C   -0.344454
    21  C   -0.275722
    22  C   -0.313176
    23  C   -0.253505
    24  C   -0.269644
    25  C   -0.468618
    26  Br  -0.923827
    27  H    0.149983
    28  H    0.137072
    29  H    0.142916
    30  H    0.153273
    31  H    0.143485
    32  H    0.150884
    33  H    0.146411
    34  H    0.161598
    35  H    0.153187
    36  H    0.196536
    37  H    0.192975
    38  H    0.182302
    39  H    0.240782
    40  H    0.239160
    41  H    0.192977
    42  H    0.187685
    43  H    0.183669
    44  H    0.169520
    45  H    0.146507
    46  H    0.152106
    47  H    0.152232
    48  H    0.141580
    49  H    0.145789
    50  H    0.145637
    51  H    0.134412
    52  H    0.132942
    53  H    0.184485
    54  H    0.218626
    55  H    0.169537
    56  H    0.214569
    57  H    0.155698
    58  H    0.160884
    59  H    0.147376
    60  H    0.144618
    61  H    0.149312
    62  H    0.148612
    63  H    0.150645
    64  H    0.146240
    65  H    0.137972
    66  H    0.221732
    67  H    0.231533
    68  H    0.197120
    69  H    0.180965
    70  H    0.149174
    71  H    0.151568
    72  H    0.152746
    73  H    0.141720
    74  H    0.151661
    75  H    0.148509
    76  H    0.151397
    77  H    0.143795
    78  H    0.154453
 Sum of Mulliken charges =  -0.00000

 Dipole moment (field-independent basis, Debye):
    X=             11.9136    Y=              7.4960    Z=            -13.2826  Tot=             19.3533
 Quadrupole moment (field-independent basis, Debye-Ang):
   XX=           -209.1730   YY=           -188.6150   ZZ=           -217.9307
   XY=            -19.9737   XZ=             34.2714   YZ=             19.4048

 Normal termination of Gaussian 16 at Sat Aug 21 11:08:23 2021.
