 Gaussian 16, Revision C.01,

 -------------------------------------------------------------
 #P BP86/TZVP EmpiricalDispersion=GD3 SCRF=(Solvent=Water) Opt
 -------------------------------------------------------------

 -------------------------------------
 Particle #UHZZMRAGKVHANO-UHFFFAOYSA-M
 -------------------------------------
 Symbolic Z-matrix:
 Charge =  0 Multiplicity = 1

 SCF Done:  E(RB-P86) =  -1173.72410897     A.U. after   12 cycles
 SCF Done:  E(RB-P86) =  -1173.73180468     A.U. after   10 cycles
 SCF Done:  E(RB-P86) =  -1173.73366068     A.U. after   10 cycles
 SCF Done:  E(RB-P86) =  -1173.73360520     A.U. after   10 cycles
 SCF Done:  E(RB-P86) =  -1173.73510197     A.U. after   10 cycles
 SCF Done:  E(RB-P86) =  -1173.73594201     A.U. after   10 cycles
 SCF Done:  E(RB-P86) =  -1173.73646470     A.U. after    9 cycles
 SCF Done:  E(RB-P86) =  -1173.73666172     A.U. after    9 cycles
 SCF Done:  E(RB-P86) =  -1173.73685778     A.U. after    9 cycles
 SCF Done:  E(RB-P86) =  -1173.73690797     A.U. after    9 cycles
 SCF Done:  E(RB-P86) =  -1173.73703996     A.U. after    8 cycles
 SCF Done:  E(RB-P86) =  -1173.73704333     A.U. after    8 cycles
 SCF Done:  E(RB-P86) =  -1173.73704420     A.U. after    7 cycles
 SCF Done:  E(RB-P86) =  -1173.73704445     A.U. after    7 cycles
 SCF Done:  E(RB-P86) =  -1173.73704496     A.U. after    7 cycles
 SCF Done:  E(RB-P86) =  -1173.73704532     A.U. after    7 cycles
 SCF Done:  E(RB-P86) =  -1173.73704563     A.U. after    7 cycles
 SCF Done:  E(RB-P86) =  -1173.73704582     A.U. after    6 cycles
 SCF Done:  E(RB-P86) =  -1173.73704602     A.U. after    6 cycles
 Optimization completed.
    -- Stationary point found.
 Normal termination of Gaussian 16 at Sat Aug 21 09:38:44 2021.
 Gaussian 16:  ES64L-G16RevC.01  3-Jul-2019

 ---------------------------------------------------------
 # BP86/TZVP SCRF=COSMORS geom=CHECKPOINT guess=CHECKPOINT
 ---------------------------------------------------------

 -------------------------------------------
 COSMO-file for #UHZZMRAGKVHANO-UHFFFAOYSA-M
 -------------------------------------------
 Structure from the checkpoint file:  "UHZZMRAGKVHANO-UHFFFAOYSA-M.chk"
 Charge =  0 Multiplicity = 1

                         Standard orientation:
 ---------------------------------------------------------------------
 Center     Atomic      Atomic             Coordinates (Angstroms)
 Number     Number       Type             X           Y           Z
 ---------------------------------------------------------------------
      1          6           0        1.230112    1.889588    0.013002
      2          7           0       -0.030611    1.062568    0.006825
      3          6           0       -0.590640    0.976736    1.407868
      4          6           0       -1.059148    1.735883   -0.878861
      5          6           0        0.189345   -0.337604   -0.572883
      6          6           0        1.101656   -1.275536    0.185095
      7         17           0        2.896965   -0.979481   -0.079765
      8         17           0       -3.197835   -1.116825   -0.029238
      9          1           0        1.947168    1.450250    0.711742
     10          1           0        1.650984    1.901292   -0.998201
     11          1           0        0.968825    2.905746    0.329262
     12          1           0       -0.851448    1.990596    1.731165
     13          1           0       -1.481591    0.334141    1.374873
     14          1           0        0.171905    0.568511    2.078773
     15          1           0       -0.656486    1.796935   -1.896311
     16          1           0       -1.974080    1.128088   -0.853715
     17          1           0       -1.245526    2.741572   -0.486284
     18          1           0       -0.820431   -0.791851   -0.583787
     19          1           0        0.534992   -0.198945   -1.605156
     20          1           0        0.939467   -1.273003    1.267838
     21          1           0        0.917342   -2.288498   -0.190241
 ---------------------------------------------------------------------

 SCF Done:  E(RB-P86) =  -1173.72203005     A.U. after   10 cycles

 The electronic state is 1-A.
 Alpha  occ. eigenvalues -- -100.75183-100.64768 -14.13527  -9.97008  -9.95842
 Alpha  occ. eigenvalues --   -9.94237  -9.94076  -9.94035  -9.18949  -9.08643
 Alpha  occ. eigenvalues --   -7.01527  -7.00389  -7.00375  -6.90466  -6.90452
 Alpha  occ. eigenvalues --   -6.90451  -0.93633  -0.79041  -0.70389  -0.67889
 Alpha  occ. eigenvalues --   -0.67827  -0.63724  -0.60984  -0.55180  -0.48425
 Alpha  occ. eigenvalues --   -0.47600  -0.46343  -0.42055  -0.40824  -0.39497
 Alpha  occ. eigenvalues --   -0.38098  -0.36485  -0.35878  -0.35686  -0.35589
 Alpha  occ. eigenvalues --   -0.35292  -0.34353  -0.27486  -0.27004  -0.21675
 Alpha  occ. eigenvalues --   -0.21664  -0.21453
 Alpha virt. eigenvalues --   -0.03124   0.00946   0.03079   0.04915   0.05055
 Alpha virt. eigenvalues --    0.05702   0.06055   0.06840   0.07777   0.09173
 Alpha virt. eigenvalues --    0.09873   0.10789   0.11415   0.11574   0.12797

 Mulliken charges:
               1
     1  C   -0.300073
     2  N   -0.188465
     3  C   -0.284269
     4  C   -0.258345
     5  C   -0.186106
     6  C   -0.256282
     7  Cl  -0.156471
     8  Cl  -0.867383
     9  H    0.197459
    10  H    0.197875
    11  H    0.192491
    12  H    0.195181
    13  H    0.153665
    14  H    0.200513
    15  H    0.193830
    16  H    0.148048
    17  H    0.193710
    18  H    0.154345
    19  H    0.223119
    20  H    0.218851
    21  H    0.228304
 Sum of Mulliken charges =  -0.00000

 Dipole moment (field-independent basis, Debye):
    X=             11.3654    Y=              9.2418    Z=              0.4453  Tot=             14.6554
 Quadrupole moment (field-independent basis, Debye-Ang):
   XX=           -115.0800   YY=            -59.2310   ZZ=            -60.6746
   XY=            -13.9255   XZ=              0.0776   YZ=             -0.4894

 Normal termination of Gaussian 16 at Sat Aug 21 09:38:57 2021.
