 Gaussian 16, Revision C.01,

 -------------------------------------------------------------
 #P BP86/TZVP EmpiricalDispersion=GD3 SCRF=(Solvent=Water) Opt
 -------------------------------------------------------------

 -------------------------------------
 Particle #UNXHWFMMPAWVPI-ZXZARUISSA-N
 -------------------------------------
 Symbolic Z-matrix:
 Charge =  0 Multiplicity = 1

 SCF Done:  E(RB-P86) =  -459.505392187     A.U. after   12 cycles
 SCF Done:  E(RB-P86) =  -459.512325656     A.U. after   10 cycles
 SCF Done:  E(RB-P86) =  -459.514296469     A.U. after   10 cycles
 SCF Done:  E(RB-P86) =  -459.515303049     A.U. after   11 cycles
 SCF Done:  E(RB-P86) =  -459.516054293     A.U. after   10 cycles
 SCF Done:  E(RB-P86) =  -459.516749550     A.U. after   11 cycles
 SCF Done:  E(RB-P86) =  -459.517297967     A.U. after   11 cycles
 SCF Done:  E(RB-P86) =  -459.517579462     A.U. after   10 cycles
 SCF Done:  E(RB-P86) =  -459.517705673     A.U. after   10 cycles
 SCF Done:  E(RB-P86) =  -459.517812779     A.U. after   10 cycles
 SCF Done:  E(RB-P86) =  -459.517844399     A.U. after    9 cycles
 SCF Done:  E(RB-P86) =  -459.517860776     A.U. after    9 cycles
 SCF Done:  E(RB-P86) =  -459.517865957     A.U. after    8 cycles
 SCF Done:  E(RB-P86) =  -459.517869990     A.U. after    9 cycles
 SCF Done:  E(RB-P86) =  -459.517872251     A.U. after    8 cycles
 SCF Done:  E(RB-P86) =  -459.517873538     A.U. after    8 cycles
 SCF Done:  E(RB-P86) =  -459.517873982     A.U. after    7 cycles
 SCF Done:  E(RB-P86) =  -459.517874024     A.U. after    7 cycles
 Optimization completed.
    -- Stationary point found.
 Normal termination of Gaussian 16 at Mon Feb 22 21:24:15 2021.
 Gaussian 16:  ES64L-G16RevC.01  3-Jul-2019

 ---------------------------------------------------------
 # BP86/TZVP SCRF=COSMORS geom=CHECKPOINT guess=CHECKPOINT
 ---------------------------------------------------------

 -------------------------------------------
 COSMO-file for #UNXHWFMMPAWVPI-ZXZARUISSA-N
 -------------------------------------------
 Structure from the checkpoint file:  "UNXHWFMMPAWVPI-ZXZARUISSA-N.chk"
 Charge =  0 Multiplicity = 1

                         Standard orientation:
 ---------------------------------------------------------------------
 Center     Atomic      Atomic             Coordinates (Angstroms)
 Number     Number       Type             X           Y           Z
 ---------------------------------------------------------------------
      1          8           0       -2.411865    0.333849    0.338749
      2          6           0       -1.697835   -0.244261   -0.784450
      3          6           0       -0.301375   -0.659319   -0.328552
      4          8           0       -0.343143   -1.743782    0.624321
      5          6           0        0.494301    0.493701    0.358429
      6          8           0       -0.111246    1.788560    0.212666
      7          6           0        1.900651    0.647056   -0.216837
      8          8           0        2.614525   -0.585018   -0.018936
      9          1           0       -3.285763    0.622903    0.020648
     10          1           0       -1.602449    0.489260   -1.604825
     11          1           0       -2.235107   -1.129240   -1.168837
     12          1           0        0.245722   -0.981154   -1.235466
     13          1           0       -0.676322   -2.531995    0.157882
     14          1           0        0.573257    0.220218    1.428266
     15          1           0       -1.053113    1.667287    0.473253
     16          1           0        1.815734    0.895824   -1.291835
     17          1           0        2.400634    1.489117    0.295576
     18          1           0        3.456781   -0.514153   -0.500596
 ---------------------------------------------------------------------

 SCF Done:  E(RB-P86) =  -459.512086927     A.U. after   10 cycles

 The electronic state is 1-A.
 Alpha  occ. eigenvalues --  -18.78490 -18.77494 -18.77434 -18.76865  -9.95316
 Alpha  occ. eigenvalues --   -9.95116  -9.94685  -9.94238  -0.95711  -0.94020
 Alpha  occ. eigenvalues --   -0.93359  -0.92870  -0.70215  -0.65794  -0.57875
 Alpha  occ. eigenvalues --   -0.52140  -0.49678  -0.47477  -0.45948  -0.43537
 Alpha  occ. eigenvalues --   -0.41980  -0.39902  -0.39056  -0.36000  -0.34625
 Alpha  occ. eigenvalues --   -0.33134  -0.32582  -0.30844  -0.28417  -0.24742
 Alpha  occ. eigenvalues --   -0.23989  -0.23637  -0.23348
 Alpha virt. eigenvalues --    0.00994   0.01724   0.03555   0.04519   0.06313
 Alpha virt. eigenvalues --    0.08318   0.08946   0.09477   0.09858   0.10816
 Alpha virt. eigenvalues --    0.12524   0.13004   0.15473   0.15870   0.17550

 Mulliken charges:
               1
     1  O   -0.435091
     2  C   -0.262131
     3  C   -0.013836
     4  O   -0.431209
     5  C   -0.027990
     6  O   -0.406241
     7  C   -0.193612
     8  O   -0.430351
     9  H    0.326334
    10  H    0.161960
    11  H    0.167374
    12  H    0.186400
    13  H    0.312229
    14  H    0.138229
    15  H    0.304705
    16  H    0.144775
    17  H    0.141503
    18  H    0.316951
 Sum of Mulliken charges =   0.00000

 Dipole moment (field-independent basis, Debye):
    X=             -2.0669    Y=             -0.7360    Z=             -4.8287  Tot=              5.3038
 Quadrupole moment (field-independent basis, Debye-Ang):
   XX=            -31.4114   YY=            -51.0891   ZZ=            -49.6703
   XY=              1.4545   XZ=              0.3164   YZ=              4.2482

 Normal termination of Gaussian 16 at Mon Feb 22 21:24:24 2021.
