 Gaussian 16, Revision C.01,

 -------------------------------------------------------------
 #P BP86/TZVP EmpiricalDispersion=GD3 SCRF=(Solvent=Water) Opt
 -------------------------------------------------------------

 -------------------------------------
 Particle #USFRYJRPHFMVBZ-UHFFFAOYSA-M
 -------------------------------------
 Symbolic Z-matrix:
 Charge =  0 Multiplicity = 1

 SCF Done:  E(RB-P86) =  -1767.93810555     A.U. after   14 cycles
 SCF Done:  E(RB-P86) =  -1767.93810584     A.U. after    7 cycles
 SCF Done:  E(RB-P86) =  -1767.93810599     A.U. after    7 cycles
 Optimization completed.
    -- Stationary point found.
 Normal termination of Gaussian 16 at Sat Aug 21 13:06:04 2021.
 Gaussian 16:  ES64L-G16RevC.01  3-Jul-2019

 ---------------------------------------------------------
 # BP86/TZVP SCRF=COSMORS geom=CHECKPOINT guess=CHECKPOINT
 ---------------------------------------------------------

 -------------------------------------------
 COSMO-file for #USFRYJRPHFMVBZ-UHFFFAOYSA-M
 -------------------------------------------
 Structure from the checkpoint file:  "USFRYJRPHFMVBZ-UHFFFAOYSA-M.chk"
 Charge =  0 Multiplicity = 1

                         Standard orientation:
 ---------------------------------------------------------------------
 Center     Atomic      Atomic             Coordinates (Angstroms)
 Number     Number       Type             X           Y           Z
 ---------------------------------------------------------------------
      1         17           0       -0.239564   -3.844390   -1.511080
      2          6           0        4.655893   -0.172156   -0.990166
      3          6           0        3.965829    0.986791   -1.369512
      4          6           0        2.589231    0.936938   -1.612342
      5          6           0        1.888090   -0.273561   -1.473277
      6          6           0        0.391308   -0.338936   -1.646295
      7         15           0       -0.499776    0.247619   -0.131617
      8          6           0        0.147856   -0.626301    1.328169
      9          6           0       -0.657085   -1.546689    2.018531
     10          6           0       -0.130704   -2.234992    3.115539
     11          6           0        1.188425   -2.005424    3.523049
     12          6           0        1.987489   -1.082080    2.837331
     13          6           0        1.474257   -0.389182    1.739106
     14          6           0       -0.244157    2.040371    0.075243
     15          6           0       -0.391252    2.877079   -1.046341
     16          6           0       -0.240909    4.257588   -0.902670
     17          6           0        0.048029    4.805429    0.353988
     18          6           0        0.178933    3.973275    1.471004
     19          6           0        0.031270    2.588921    1.337987
     20          6           0       -2.281781   -0.070409   -0.323329
     21          6           0       -2.710622   -1.323309   -0.799285
     22          6           0       -4.081256   -1.571083   -0.918209
     23          6           0       -5.012523   -0.584336   -0.571217
     24          6           0       -4.577800    0.659277   -0.096505
     25          6           0       -3.211117    0.922952    0.030508
     26          6           0        2.587079   -1.435183   -1.101305
     27          6           0        3.964722   -1.383569   -0.865638
     28          1           0        5.729891   -0.130536   -0.797074
     29          1           0        4.500424    1.932982   -1.475931
     30          1           0        2.056032    1.845072   -1.901325
     31          1           0        0.021543    0.277010   -2.479009
     32          1           0        0.053947   -1.383035   -1.790044
     33          1           0       -1.686447   -1.726714    1.705503
     34          1           0       -0.755576   -2.950644    3.652374
     35          1           0        1.594755   -2.544730    4.380848
     36          1           0        3.015002   -0.899038    3.155820
     37          1           0        2.101109    0.330524    1.210595
     38          1           0       -0.625193    2.462382   -2.028344
     39          1           0       -0.349628    4.905488   -1.773876
     40          1           0        0.167353    5.885040    0.461912
     41          1           0        0.396845    4.399494    2.451626
     42          1           0        0.129719    1.944705    2.212576
     43          1           0       -1.988230   -2.108538   -1.056730
     44          1           0       -4.420393   -2.541651   -1.285321
     45          1           0       -6.081173   -0.784965   -0.669968
     46          1           0       -5.302816    1.428727    0.174320
     47          1           0       -2.873752    1.893506    0.398217
     48          1           0        2.032046   -2.372265   -0.994686
     49          1           0        4.498542   -2.290939   -0.575082
 ---------------------------------------------------------------------

 SCF Done:  E(RB-P86) =  -1767.88067219     A.U. after   11 cycles

 The electronic state is 1-A.
 Alpha  occ. eigenvalues -- -100.64842 -76.47559  -9.94338  -9.94248  -9.94204
 Alpha  occ. eigenvalues --   -9.93246  -9.92741  -9.92688  -9.92610  -9.92579
 Alpha  occ. eigenvalues --   -9.92576  -9.92524  -9.92163  -9.91999  -9.91883
 Alpha  occ. eigenvalues --   -9.91869  -9.91862  -9.91832  -9.91707  -9.91692
 Alpha  occ. eigenvalues --   -9.91680  -9.91657  -9.90842  -9.90785  -9.90718
 Alpha  occ. eigenvalues --   -9.90674  -9.90524  -9.08705  -6.90528  -6.90515
 Alpha  occ. eigenvalues --   -6.90512  -6.40598  -4.62316  -4.62301  -4.62252
 Alpha  occ. eigenvalues --   -0.81495  -0.80049  -0.79936  -0.79252  -0.74805
 Alpha  occ. eigenvalues --   -0.71205  -0.70078  -0.70047  -0.69562  -0.69459
 Alpha  occ. eigenvalues --   -0.69418  -0.68335  -0.65232  -0.63797  -0.60737
 Alpha  occ. eigenvalues --   -0.57203  -0.57016  -0.56239  -0.55944  -0.55850
 Alpha  occ. eigenvalues --   -0.55411  -0.53876  -0.52216  -0.48808  -0.48749
 Alpha  occ. eigenvalues --   -0.47051  -0.46314  -0.43533  -0.43246  -0.42868
 Alpha  occ. eigenvalues --   -0.42480  -0.41956  -0.41916  -0.41408  -0.41072
 Alpha  occ. eigenvalues --   -0.39965  -0.39523  -0.39431  -0.39103  -0.38934
 Alpha  occ. eigenvalues --   -0.38125  -0.37956  -0.37333  -0.36018  -0.35356
 Alpha  occ. eigenvalues --   -0.35078  -0.34840  -0.34085  -0.32753  -0.32321
 Alpha  occ. eigenvalues --   -0.32267  -0.31671  -0.31539  -0.31087  -0.30838
 Alpha  occ. eigenvalues --   -0.30487  -0.26091  -0.25817  -0.25561  -0.25170
 Alpha  occ. eigenvalues --   -0.25066  -0.24859  -0.23756  -0.23277  -0.21730
 Alpha  occ. eigenvalues --   -0.21588  -0.21449
 Alpha virt. eigenvalues --   -0.08735  -0.08343  -0.07877  -0.06856  -0.06074
 Alpha virt. eigenvalues --   -0.05756  -0.05529  -0.04876   0.00814   0.01399
 Alpha virt. eigenvalues --    0.02304   0.02914   0.04056   0.04470   0.04734

 Mulliken charges:
               1
     1  Cl  -0.857455
     2  C   -0.112109
     3  C   -0.182577
     4  C   -0.080096
     5  C   -0.026572
     6  C   -0.518016
     7  P    0.433242
     8  C   -0.229768
     9  C   -0.062384
    10  C   -0.155803
    11  C   -0.101865
    12  C   -0.160396
    13  C   -0.024724
    14  C   -0.274203
    15  C   -0.084822
    16  C   -0.105281
    17  C   -0.112940
    18  C   -0.139725
    19  C   -0.029564
    20  C   -0.274376
    21  C    0.071567
    22  C   -0.170843
    23  C   -0.088689
    24  C   -0.155104
    25  C   -0.010319
    26  C   -0.005195
    27  C   -0.191038
    28  H    0.149658
    29  H    0.147417
    30  H    0.177834
    31  H    0.263120
    32  H    0.184177
    33  H    0.190146
    34  H    0.155319
    35  H    0.157485
    36  H    0.153686
    37  H    0.222191
    38  H    0.180154
    39  H    0.156283
    40  H    0.159004
    41  H    0.157142
    42  H    0.188288
    43  H    0.103157
    44  H    0.152154
    45  H    0.157573
    46  H    0.156349
    47  H    0.189567
    48  H    0.101874
    49  H    0.146479
 Sum of Mulliken charges =  -0.00000

 Dipole moment (field-independent basis, Debye):
    X=             -1.5085    Y=             18.7691    Z=              7.2879  Tot=             20.1907
 Quadrupole moment (field-independent basis, Debye-Ang):
   XX=           -141.2875   YY=           -202.3521   ZZ=           -168.1952
   XY=             -0.7783   XZ=              6.7631   YZ=            -30.7158

 Normal termination of Gaussian 16 at Sat Aug 21 13:08:21 2021.
