 Gaussian 16, Revision C.01,

 -------------------------------------------------------------
 #P BP86/TZVP EmpiricalDispersion=GD3 SCRF=(Solvent=Water) Opt
 -------------------------------------------------------------

 -------------------------------------
 Particle #VEXZGXHMUGYJMC-UHFFFAOYSA-M
 -------------------------------------
 Symbolic Z-matrix:
 Charge = -1 Multiplicity = 1

 SCF Done:  E(RB-P86) =  -460.431704748     A.U. after    7 cycles
 Optimization completed.
    -- Stationary point found.
 Normal termination of Gaussian 16 at Tue Feb 23 00:12:35 2021.
 Gaussian 16:  ES64L-G16RevC.01  3-Jul-2019

 ---------------------------------------------------------
 # BP86/TZVP SCRF=COSMORS geom=CHECKPOINT guess=CHECKPOINT
 ---------------------------------------------------------

 -------------------------------------------
 COSMO-file for #VEXZGXHMUGYJMC-UHFFFAOYSA-M
 -------------------------------------------
 Structure from the checkpoint file:  "VEXZGXHMUGYJMC-UHFFFAOYSA-M.chk"
 Charge = -1 Multiplicity = 1

                         Standard orientation:
 ---------------------------------------------------------------------
 Center     Atomic      Atomic             Coordinates (Angstroms)
 Number     Number       Type             X           Y           Z
 ---------------------------------------------------------------------
      1         17           0        0.000000    0.000000    0.000000
 ---------------------------------------------------------------------

 SCF Done:  E(RB-P86) =  -460.441130732     A.U. after    7 cycles

 The electronic state is 1-A1G.
 Alpha  occ. eigenvalues -- -100.63825  -9.07716  -6.89530  -6.89530  -6.89530
 Alpha  occ. eigenvalues --   -0.62705  -0.20951  -0.20951  -0.20951
 Alpha virt. eigenvalues --    0.34284   0.34284   0.34284   0.52003   0.80677
 Alpha virt. eigenvalues --    0.80677   0.80677   0.80677   0.80677   2.23522
 Alpha virt. eigenvalues --    2.23522   2.23522  23.48928

 Mulliken charges:
               1
     1  Cl  -1.000000
 Sum of Mulliken charges =  -1.00000

 Dipole moment (field-independent basis, Debye):
    X=              0.0000    Y=              0.0000    Z=              0.0000  Tot=              0.0000
 Quadrupole moment (field-independent basis, Debye-Ang):
   XX=            -16.0924   YY=            -16.0924   ZZ=            -16.0924
   XY=             -0.0000   XZ=              0.0000   YZ=             -0.0000

 Normal termination of Gaussian 16 at Tue Feb 23 00:12:37 2021.
