 Gaussian 16, Revision C.01,

 -------------------------------------------------------------
 #P BP86/TZVP EmpiricalDispersion=GD3 SCRF=(Solvent=Water) Opt
 -------------------------------------------------------------

 -------------------------------------
 Particle #WBYWAXJHAXSJNI-VOTSOKGWSA-N
 -------------------------------------
 Symbolic Z-matrix:
 Charge =  0 Multiplicity = 1

 SCF Done:  E(RB-P86) =  -498.373525408     A.U. after   15 cycles
 SCF Done:  E(RB-P86) =  -498.412435475     A.U. after   13 cycles
 SCF Done:  E(RB-P86) =  -498.421118658     A.U. after   12 cycles
 SCF Done:  E(RB-P86) =  -498.421568478     A.U. after   11 cycles
 SCF Done:  E(RB-P86) =  -498.421639558     A.U. after   10 cycles
 SCF Done:  E(RB-P86) =  -498.421708173     A.U. after   10 cycles
 SCF Done:  E(RB-P86) =  -498.421741376     A.U. after    9 cycles
 SCF Done:  E(RB-P86) =  -498.421796130     A.U. after   10 cycles
 SCF Done:  E(RB-P86) =  -498.421807230     A.U. after   10 cycles
 SCF Done:  E(RB-P86) =  -498.421811650     A.U. after    9 cycles
 SCF Done:  E(RB-P86) =  -498.421812586     A.U. after    8 cycles
 SCF Done:  E(RB-P86) =  -498.421813237     A.U. after    8 cycles
 SCF Done:  E(RB-P86) =  -498.421813433     A.U. after    8 cycles
 Optimization completed.
    -- Stationary point found.
 Normal termination of Gaussian 16 at Mon Feb 22 21:24:48 2021.
 Gaussian 16:  ES64L-G16RevC.01  3-Jul-2019

 ---------------------------------------------------------
 # BP86/TZVP SCRF=COSMORS geom=CHECKPOINT guess=CHECKPOINT
 ---------------------------------------------------------

 -------------------------------------------
 COSMO-file for #WBYWAXJHAXSJNI-VOTSOKGWSA-N
 -------------------------------------------
 Structure from the checkpoint file:  "WBYWAXJHAXSJNI-VOTSOKGWSA-N.chk"
 Charge =  0 Multiplicity = 1

                         Standard orientation:
 ---------------------------------------------------------------------
 Center     Atomic      Atomic             Coordinates (Angstroms)
 Number     Number       Type             X           Y           Z
 ---------------------------------------------------------------------
      1          8           0        3.365344    1.220230   -0.000043
      2          6           0        2.980232    0.053848    0.000012
      3          8           0        3.852351   -1.003265    0.000031
      4          6           0        1.584782   -0.411852    0.000060
      5          6           0        0.562728    0.475351   -0.000035
      6          6           0       -0.867893    0.185993   -0.000024
      7          6           0       -1.774568    1.270160    0.000010
      8          6           0       -3.154511    1.053451    0.000041
      9          6           0       -3.656596   -0.253272    0.000022
     10          6           0       -2.769657   -1.341471   -0.000027
     11          6           0       -1.392448   -1.127494   -0.000052
     12          1           0        4.759548   -0.630190    0.000007
     13          1           0        1.429447   -1.491922    0.000172
     14          1           0        0.832979    1.538021   -0.000120
     15          1           0       -1.384432    2.291046    0.000025
     16          1           0       -3.838602    1.904276    0.000079
     17          1           0       -4.734535   -0.426870    0.000039
     18          1           0       -3.158942   -2.361557   -0.000053
     19          1           0       -0.719436   -1.986814   -0.000097
 ---------------------------------------------------------------------

 SCF Done:  E(RB-P86) =  -498.414198898     A.U. after   11 cycles

 The electronic state is 1-A.
 Alpha  occ. eigenvalues --  -18.81864 -18.76580 -10.03175  -9.92998  -9.92633
 Alpha  occ. eigenvalues --   -9.91696  -9.91434  -9.91403  -9.91322  -9.91130
 Alpha  occ. eigenvalues --   -9.91067  -1.01804  -0.93541  -0.79734  -0.74260
 Alpha  occ. eigenvalues --   -0.68980  -0.68614  -0.61513  -0.56265  -0.55186
 Alpha  occ. eigenvalues --   -0.50573  -0.47691  -0.45673  -0.44077  -0.41560
 Alpha  occ. eigenvalues --   -0.41252  -0.40786  -0.38713  -0.38261  -0.36383
 Alpha  occ. eigenvalues --   -0.35328  -0.34431  -0.31749  -0.30710  -0.29497
 Alpha  occ. eigenvalues --   -0.28540  -0.25059  -0.24439  -0.22497
 Alpha virt. eigenvalues --   -0.11175  -0.05433  -0.03256   0.02895   0.03374
 Alpha virt. eigenvalues --    0.04230   0.05301   0.07470   0.08753   0.09377
 Alpha virt. eigenvalues --    0.09479   0.10938   0.11482   0.12962   0.14183

 Mulliken charges:
               1
     1  O   -0.378513
     2  C    0.187697
     3  O   -0.289758
     4  C   -0.133399
     5  C   -0.195814
     6  C   -0.002925
     7  C   -0.153551
     8  C   -0.128384
     9  C   -0.130161
    10  C   -0.131482
    11  C   -0.105274
    12  H    0.328999
    13  H    0.191511
    14  H    0.164545
    15  H    0.155651
    16  H    0.152624
    17  H    0.154819
    18  H    0.151406
    19  H    0.162009
 Sum of Mulliken charges =  -0.00000

 Dipole moment (field-independent basis, Debye):
    X=             -3.0208    Y=             -1.8937    Z=              0.0012  Tot=              3.5653
 Quadrupole moment (field-independent basis, Debye-Ang):
   XX=            -52.9224   YY=            -61.4714   ZZ=            -68.3376
   XY=             -7.1513   XZ=             -0.0011   YZ=              0.0003

 Normal termination of Gaussian 16 at Mon Feb 22 21:25:00 2021.
