 Gaussian 16, Revision C.01,

 -------------------------------------------------------------
 #P BP86/TZVP EmpiricalDispersion=GD3 SCRF=(Solvent=Water) Opt
 -------------------------------------------------------------

 -------------------------------------
 Particle #WEEGYLXZBRQIMU-UHFFFAOYSA-N
 -------------------------------------
 Symbolic Z-matrix:
 Charge =  0 Multiplicity = 1

 SCF Done:  E(RB-P86) =  -467.306087243     A.U. after   12 cycles
 SCF Done:  E(RB-P86) =  -467.312392355     A.U. after   10 cycles
 SCF Done:  E(RB-P86) =  -467.312773006     A.U. after    9 cycles
 SCF Done:  E(RB-P86) =  -467.312812406     A.U. after    9 cycles
 SCF Done:  E(RB-P86) =  -467.312818558     A.U. after    8 cycles
 SCF Done:  E(RB-P86) =  -467.312819945     A.U. after    7 cycles
 SCF Done:  E(RB-P86) =  -467.312820056     A.U. after    6 cycles
 Optimization completed.
    -- Stationary point found.
 Normal termination of Gaussian 16 at Mon Feb 22 21:24:35 2021.
 Gaussian 16:  ES64L-G16RevC.01  3-Jul-2019

 ---------------------------------------------------------
 # BP86/TZVP SCRF=COSMORS geom=CHECKPOINT guess=CHECKPOINT
 ---------------------------------------------------------

 -------------------------------------------
 COSMO-file for #WEEGYLXZBRQIMU-UHFFFAOYSA-N
 -------------------------------------------
 Structure from the checkpoint file:  "WEEGYLXZBRQIMU-UHFFFAOYSA-N.chk"
 Charge =  0 Multiplicity = 1

                         Standard orientation:
 ---------------------------------------------------------------------
 Center     Atomic      Atomic             Coordinates (Angstroms)
 Number     Number       Type             X           Y           Z
 ---------------------------------------------------------------------
      1          6           0        2.364539   -1.415618   -0.011994
      2          6           0        1.235358   -0.394033   -0.003586
      3          6           0        1.251862    0.475998    1.269837
      4          6           0        0.039937    1.449509    1.253515
      5          6           0       -0.817909    1.141712    0.008753
      6          6           0        0.039904    1.469779   -1.230758
      7          6           0        1.256634    0.502311   -1.258592
      8          6           0       -1.222398   -0.358279   -0.003361
      9          6           0       -2.018217   -0.755401    1.247669
     10          6           0       -2.025123   -0.733561   -1.256586
     11          8           0        0.002302   -1.176425   -0.014504
     12          1           0        3.340114   -0.907458   -0.006505
     13          1           0        2.304224   -2.046839   -0.911331
     14          1           0        2.302741   -2.063405    0.875392
     15          1           0        1.208449   -0.196663    2.140669
     16          1           0        2.206908    1.021432    1.325504
     17          1           0       -0.551077    1.360429    2.175752
     18          1           0        0.376898    2.496281    1.199127
     19          1           0       -1.737340    1.748159    0.013633
     20          1           0       -0.549763    1.389625   -2.154646
     21          1           0        0.371640    2.517402   -1.162719
     22          1           0        1.222692   -0.151926   -2.143717
     23          1           0        2.209442    1.053279   -1.295756
     24          1           0       -2.948631   -0.170893    1.322631
     25          1           0       -1.430542   -0.599708    2.162082
     26          1           0       -2.283275   -1.822026    1.194177
     27          1           0       -1.443304   -0.560084   -2.171550
     28          1           0       -2.288259   -1.801409   -1.221109
     29          1           0       -2.956865   -0.149296   -1.314994
 ---------------------------------------------------------------------

 SCF Done:  E(RB-P86) =  -467.280139653     A.U. after   10 cycles

 The electronic state is 1-A.
 Alpha  occ. eigenvalues --  -18.76159  -9.94950  -9.94724  -9.89721  -9.88772
 Alpha  occ. eigenvalues --   -9.88771  -9.88684  -9.88682  -9.88204  -9.87944
 Alpha  occ. eigenvalues --   -9.87942  -0.93451  -0.74821  -0.73393  -0.66993
 Alpha  occ. eigenvalues --   -0.66218  -0.61561  -0.60858  -0.54837  -0.54090
 Alpha  occ. eigenvalues --   -0.52505  -0.44909  -0.43830  -0.41796  -0.41754
 Alpha  occ. eigenvalues --   -0.39731  -0.37700  -0.36775  -0.35432  -0.35365
 Alpha  occ. eigenvalues --   -0.34217  -0.33862  -0.32815  -0.32425  -0.32072
 Alpha  occ. eigenvalues --   -0.31049  -0.30807  -0.30335  -0.29501  -0.26847
 Alpha  occ. eigenvalues --   -0.26172  -0.24156  -0.20257
 Alpha virt. eigenvalues --    0.01245   0.03545   0.04343   0.05338   0.05461
 Alpha virt. eigenvalues --    0.06811   0.08010   0.08202   0.08844   0.09334
 Alpha virt. eigenvalues --    0.10034   0.10230   0.10703   0.11116   0.11965

 Mulliken charges:
               1
     1  C   -0.377877
     2  C   -0.047978
     3  C   -0.261528
     4  C   -0.359042
     5  C   -0.067836
     6  C   -0.358656
     7  C   -0.260827
     8  C   -0.009418
     9  C   -0.422113
    10  C   -0.421536
    11  O   -0.250974
    12  H    0.146946
    13  H    0.143735
    14  H    0.143676
    15  H    0.153547
    16  H    0.156517
    17  H    0.180404
    18  H    0.163675
    19  H    0.196690
    20  H    0.180430
    21  H    0.163615
    22  H    0.152928
    23  H    0.156183
    24  H    0.145446
    25  H    0.156337
    26  H    0.148226
    27  H    0.155779
    28  H    0.148211
    29  H    0.145441
 Sum of Mulliken charges =  -0.00000

 Dipole moment (field-independent basis, Debye):
    X=              0.0524    Y=              2.4925    Z=              0.0327  Tot=              2.4933
 Quadrupole moment (field-independent basis, Debye-Ang):
   XX=            -66.1886   YY=            -73.1330   ZZ=            -70.0585
   XY=              0.0794   XZ=              0.0033   YZ=             -0.0387

 Normal termination of Gaussian 16 at Mon Feb 22 21:24:55 2021.
