 Gaussian 16, Revision C.01,

 -------------------------------------------------------------
 #P BP86/TZVP EmpiricalDispersion=GD3 SCRF=(Solvent=Water) Opt
 -------------------------------------------------------------

 -------------------------------------
 Particle #WERYXYBDKMZEQL-UHFFFAOYSA-N
 -------------------------------------
 Symbolic Z-matrix:
 Charge =  0 Multiplicity = 1

 SCF Done:  E(RB-P86) =  -309.007397988     A.U. after   11 cycles
 SCF Done:  E(RB-P86) =  -309.010970138     A.U. after    9 cycles
 SCF Done:  E(RB-P86) =  -309.011125724     A.U. after    8 cycles
 SCF Done:  E(RB-P86) =  -309.011135854     A.U. after    7 cycles
 Optimization completed.
    -- Stationary point found.
 Normal termination of Gaussian 16 at Mon Feb 22 21:22:39 2021.
 Gaussian 16:  ES64L-G16RevC.01  3-Jul-2019

 ---------------------------------------------------------
 # BP86/TZVP SCRF=COSMORS geom=CHECKPOINT guess=CHECKPOINT
 ---------------------------------------------------------

 -------------------------------------------
 COSMO-file for #WERYXYBDKMZEQL-UHFFFAOYSA-N
 -------------------------------------------
 Structure from the checkpoint file:  "WERYXYBDKMZEQL-UHFFFAOYSA-N.chk"
 Charge =  0 Multiplicity = 1

                         Standard orientation:
 ---------------------------------------------------------------------
 Center     Atomic      Atomic             Coordinates (Angstroms)
 Number     Number       Type             X           Y           Z
 ---------------------------------------------------------------------
      1          8           0        3.058681    0.327213   -0.000001
      2          6           0        1.879566   -0.507721    0.000000
      3          6           0        0.655775    0.398730    0.000000
      4          6           0       -0.655775   -0.398730    0.000000
      5          6           0       -1.879566    0.507721    0.000000
      6          8           0       -3.058681   -0.327213   -0.000001
      7          1           0        3.835067   -0.259966    0.000003
      8          1           0        1.863833   -1.160412    0.894214
      9          1           0        1.863832   -1.160413   -0.894213
     10          1           0        0.699390    1.052916    0.887390
     11          1           0        0.699390    1.052916   -0.887389
     12          1           0       -0.699390   -1.052916    0.887390
     13          1           0       -0.699390   -1.052916   -0.887390
     14          1           0       -1.863833    1.160412    0.894214
     15          1           0       -1.863832    1.160413   -0.894213
     16          1           0       -3.835066    0.259966    0.000002
 ---------------------------------------------------------------------

 SCF Done:  E(RB-P86) =  -309.006292646     A.U. after    9 cycles

 The electronic state is 1-A.
 Alpha  occ. eigenvalues --  -18.76954 -18.76953  -9.93863  -9.93862  -9.89371
 Alpha  occ. eigenvalues --   -9.89361  -0.93176  -0.93142  -0.72261  -0.64740
 Alpha  occ. eigenvalues --   -0.55826  -0.52412  -0.46511  -0.44900  -0.43715
 Alpha  occ. eigenvalues --   -0.40041  -0.38325  -0.33918  -0.33846  -0.31954
 Alpha  occ. eigenvalues --   -0.29947  -0.29169  -0.28523  -0.23443  -0.23090
 Alpha virt. eigenvalues --    0.02410   0.02639   0.03516   0.06263   0.06299
 Alpha virt. eigenvalues --    0.08922   0.10076   0.11769   0.12035   0.12396
 Alpha virt. eigenvalues --    0.12571   0.14104   0.16390   0.18658   0.18775

 Mulliken charges:
               1
     1  O   -0.439511
     2  C   -0.167598
     3  C   -0.228090
     4  C   -0.228049
     5  C   -0.167651
     6  O   -0.439504
     7  H    0.312662
     8  H    0.130083
     9  H    0.130069
    10  H    0.131196
    11  H    0.131189
    12  H    0.131181
    13  H    0.131195
    14  H    0.130070
    15  H    0.130091
    16  H    0.312666
 Sum of Mulliken charges =  -0.00000

 Dipole moment (field-independent basis, Debye):
    X=             -0.0000    Y=             -0.0001    Z=             -0.0004  Tot=              0.0004
 Quadrupole moment (field-independent basis, Debye-Ang):
   XX=            -32.8019   YY=            -39.6900   ZZ=            -38.8513
   XY=            -13.8123   XZ=              0.0010   YZ=              0.0002

 Normal termination of Gaussian 16 at Mon Feb 22 21:22:46 2021.
