 Gaussian 16, Revision C.01,

 -------------------------------------------------------------
 #P BP86/TZVP EmpiricalDispersion=GD3 SCRF=(Solvent=Water) Opt
 -------------------------------------------------------------

 -------------------------------------
 Particle #WHUUTDBJXJRKMK-GSVOUGTGSA-N
 -------------------------------------
 Symbolic Z-matrix:
 Charge =  0 Multiplicity = 1

 SCF Done:  E(RB-P86) =  -551.848390919     A.U. after   17 cycles
 SCF Done:  E(RB-P86) =  -551.871090895     A.U. after   12 cycles
 SCF Done:  E(RB-P86) =  -551.877258275     A.U. after   12 cycles
 SCF Done:  E(RB-P86) =  -551.874716105     A.U. after   12 cycles
 SCF Done:  E(RB-P86) =  -551.879861549     A.U. after   11 cycles
 SCF Done:  E(RB-P86) =  -551.881348314     A.U. after   11 cycles
 SCF Done:  E(RB-P86) =  -551.883035332     A.U. after   12 cycles
 SCF Done:  E(RB-P86) =  -551.883994580     A.U. after   11 cycles
 SCF Done:  E(RB-P86) =  -551.884908966     A.U. after   14 cycles
 SCF Done:  E(RB-P86) =  -551.886244648     A.U. after   11 cycles
 SCF Done:  E(RB-P86) =  -551.887796079     A.U. after   10 cycles
 SCF Done:  E(RB-P86) =  -551.887857425     A.U. after   11 cycles
 SCF Done:  E(RB-P86) =  -551.887850506     A.U. after   10 cycles
 SCF Done:  E(RB-P86) =  -551.887875177     A.U. after   10 cycles
 SCF Done:  E(RB-P86) =  -551.887880046     A.U. after   10 cycles
 SCF Done:  E(RB-P86) =  -551.887882079     A.U. after    9 cycles
 SCF Done:  E(RB-P86) =  -551.887882223     A.U. after    8 cycles
 SCF Done:  E(RB-P86) =  -551.887882710     A.U. after    8 cycles
 SCF Done:  E(RB-P86) =  -551.887882546     A.U. after    7 cycles
 Optimization completed.
    -- Stationary point found.
 Normal termination of Gaussian 16 at Mon Feb 22 21:28:33 2021.
 Gaussian 16:  ES64L-G16RevC.01  3-Jul-2019

 ---------------------------------------------------------
 # BP86/TZVP SCRF=COSMORS geom=CHECKPOINT guess=CHECKPOINT
 ---------------------------------------------------------

 -------------------------------------------
 COSMO-file for #WHUUTDBJXJRKMK-GSVOUGTGSA-N
 -------------------------------------------
 Structure from the checkpoint file:  "WHUUTDBJXJRKMK-GSVOUGTGSA-N.chk"
 Charge =  0 Multiplicity = 1

                         Standard orientation:
 ---------------------------------------------------------------------
 Center     Atomic      Atomic             Coordinates (Angstroms)
 Number     Number       Type             X           Y           Z
 ---------------------------------------------------------------------
      1          7           0        1.475827    1.696491    0.254115
      2          6           0        1.171845    0.366069   -0.402673
      3          6           0       -0.126309   -0.264326    0.086564
      4          6           0       -1.378201    0.494542   -0.359285
      5          6           0       -2.658270   -0.182946    0.081493
      6          8           0       -2.733948   -1.222768    0.715773
      7          8           0       -3.752260    0.519532   -0.324490
      8          6           0        2.447396   -0.511080   -0.103796
      9          8           0        3.388659    0.132019    0.478650
     10          8           0        2.421839   -1.703122   -0.469889
     11          1           0        0.911510    1.872200    1.093743
     12          1           0        2.506333    1.487372    0.543631
     13          1           0        1.398662    2.504953   -0.371142
     14          1           0        1.133600    0.538286   -1.487961
     15          1           0       -0.147978   -1.288654   -0.310194
     16          1           0       -0.103899   -0.358797    1.184566
     17          1           0       -1.410423    0.589475   -1.457508
     18          1           0       -1.403733    1.526702    0.028370
     19          1           0       -4.547934    0.034177   -0.016463
 ---------------------------------------------------------------------

 SCF Done:  E(RB-P86) =  -551.888167428     A.U. after   12 cycles

 The electronic state is 1-A.
 Alpha  occ. eigenvalues --  -18.82127 -18.77243 -18.74314 -18.73296 -14.08083
 Alpha  occ. eigenvalues --  -10.03571  -9.99761  -9.95643  -9.91807  -9.91236
 Alpha  occ. eigenvalues --   -1.02389  -0.96667  -0.94242  -0.89788  -0.87291
 Alpha  occ. eigenvalues --   -0.73799  -0.67019  -0.59554  -0.53755  -0.51504
 Alpha  occ. eigenvalues --   -0.49649  -0.47298  -0.45474  -0.44590  -0.43395
 Alpha  occ. eigenvalues --   -0.42542  -0.39617  -0.37921  -0.37833  -0.36514
 Alpha  occ. eigenvalues --   -0.34952  -0.33945  -0.32599  -0.31400  -0.29411
 Alpha  occ. eigenvalues --   -0.25211  -0.24492  -0.23629  -0.21610
 Alpha virt. eigenvalues --   -0.04810  -0.01355   0.01262   0.03211   0.05041
 Alpha virt. eigenvalues --    0.05227   0.06312   0.08057   0.09189   0.09525
 Alpha virt. eigenvalues --    0.11912   0.12811   0.13617   0.14519   0.15148

 Mulliken charges:
               1
     1  N   -0.286710
     2  C   -0.157601
     3  C   -0.347133
     4  C   -0.252765
     5  C    0.207270
     6  O   -0.359042
     7  O   -0.283126
     8  C    0.198187
     9  O   -0.475353
    10  O   -0.463656
    11  H    0.324735
    12  H    0.291117
    13  H    0.328249
    14  H    0.223553
    15  H    0.165101
    16  H    0.171021
    17  H    0.192344
    18  H    0.191073
    19  H    0.332736
 Sum of Mulliken charges =  -0.00000

 Dipole moment (field-independent basis, Debye):
    X=             -7.3754    Y=             12.1652    Z=             -0.6576  Tot=             14.2415
 Quadrupole moment (field-independent basis, Debye-Ang):
   XX=            -83.1042   YY=            -58.4063   ZZ=            -57.4845
   XY=             15.4425   XZ=              0.6608   YZ=              1.6936

 Normal termination of Gaussian 16 at Mon Feb 22 21:28:45 2021.
