 Gaussian 16, Revision C.01,

 -------------------------------------------------------------
 #P BP86/TZVP EmpiricalDispersion=GD3 SCRF=(Solvent=Water) Opt
 -------------------------------------------------------------

 -------------------------------------
 Particle #WLJVXDMOQOGPHL-UHFFFAOYSA-N
 -------------------------------------
 Symbolic Z-matrix:
 Charge =  0 Multiplicity = 1

 SCF Done:  E(RB-P86) =  -460.288189808     A.U. after   13 cycles
 SCF Done:  E(RB-P86) =  -460.313106271     A.U. after   12 cycles
 SCF Done:  E(RB-P86) =  -460.315667252     A.U. after   11 cycles
 SCF Done:  E(RB-P86) =  -460.315804627     A.U. after   10 cycles
 SCF Done:  E(RB-P86) =  -460.315822081     A.U. after   10 cycles
 SCF Done:  E(RB-P86) =  -460.315882920     A.U. after    9 cycles
 SCF Done:  E(RB-P86) =  -460.315949837     A.U. after   10 cycles
 SCF Done:  E(RB-P86) =  -460.315999573     A.U. after   10 cycles
 SCF Done:  E(RB-P86) =  -460.316002028     A.U. after    9 cycles
 SCF Done:  E(RB-P86) =  -460.316013986     A.U. after    9 cycles
 SCF Done:  E(RB-P86) =  -460.316770667     A.U. after   10 cycles
 SCF Done:  E(RB-P86) =  -460.316768663     A.U. after    9 cycles
 SCF Done:  E(RB-P86) =  -460.316768532     A.U. after    9 cycles
 SCF Done:  E(RB-P86) =  -460.316771039     A.U. after    9 cycles
 SCF Done:  E(RB-P86) =  -460.316768406     A.U. after    9 cycles
 SCF Done:  E(RB-P86) =  -460.316768200     A.U. after    7 cycles
 SCF Done:  E(RB-P86) =  -460.316770719     A.U. after    9 cycles
 SCF Done:  E(RB-P86) =  -460.316771249     A.U. after    8 cycles
 SCF Done:  E(RB-P86) =  -460.316768067     A.U. after   10 cycles
 Optimization completed on the basis of negligible forces.
    -- Stationary point found.
 Normal termination of Gaussian 16 at Mon Feb 22 21:32:05 2021.
 Gaussian 16:  ES64L-G16RevC.01  3-Jul-2019

 ---------------------------------------------------------
 # BP86/TZVP SCRF=COSMORS geom=CHECKPOINT guess=CHECKPOINT
 ---------------------------------------------------------

 -------------------------------------------
 COSMO-file for #WLJVXDMOQOGPHL-UHFFFAOYSA-N
 -------------------------------------------
 Structure from the checkpoint file:  "WLJVXDMOQOGPHL-UHFFFAOYSA-N.chk"
 Charge =  0 Multiplicity = 1

                         Standard orientation:
 ---------------------------------------------------------------------
 Center     Atomic      Atomic             Coordinates (Angstroms)
 Number     Number       Type             X           Y           Z
 ---------------------------------------------------------------------
      1          8           0        1.862585   -0.109471   -1.410228
      2          6           0        2.146409   -0.015513   -0.228455
      3          8           0        3.430781    0.037924    0.224127
      4          6           0        1.167569    0.055682    0.934615
      5          6           0       -0.279168    0.029824    0.506756
      6          6           0       -0.952980   -1.190684    0.340717
      7          6           0       -2.287879   -1.217243   -0.078999
      8          6           0       -2.966654   -0.019637   -0.337826
      9          6           0       -2.302850    1.202613   -0.173677
     10          6           0       -0.967615    1.225167    0.245884
     11          1           0        4.022719   -0.014195   -0.557041
     12          1           0        1.402876   -0.786132    1.605801
     13          1           0        1.402557    0.969887    1.502745
     14          1           0       -0.427431   -2.127688    0.542939
     15          1           0       -2.799678   -2.174359   -0.201318
     16          1           0       -4.009084   -0.038798   -0.662790
     17          1           0       -2.826279    2.140968   -0.369806
     18          1           0       -0.453599    2.181431    0.374196
 ---------------------------------------------------------------------

 SCF Done:  E(RB-P86) =  -460.309296486     A.U. after   11 cycles

 The electronic state is 1-A.
 Alpha  occ. eigenvalues --  -18.82176 -18.77322 -10.03735  -9.91986  -9.91818
 Alpha  occ. eigenvalues --   -9.90555  -9.90551  -9.90492  -9.90488  -9.90455
 Alpha  occ. eigenvalues --   -1.02449  -0.94315  -0.78935  -0.72320  -0.68099
 Alpha  occ. eigenvalues --   -0.65708  -0.57119  -0.55194  -0.52458  -0.46501
 Alpha  occ. eigenvalues --   -0.45491  -0.43684  -0.43587  -0.40803  -0.40318
 Alpha  occ. eigenvalues --   -0.37702  -0.37175  -0.36307  -0.34229  -0.33169
 Alpha  occ. eigenvalues --   -0.30797  -0.30250  -0.29540  -0.25294  -0.23753
 Alpha  occ. eigenvalues --   -0.23269
 Alpha virt. eigenvalues --   -0.05482  -0.05062  -0.04267   0.02633   0.03732
 Alpha virt. eigenvalues --    0.05946   0.06858   0.08225   0.09372   0.09933
 Alpha virt. eigenvalues --    0.10701   0.12054   0.12342   0.13393   0.14591

 Mulliken charges:
               1
     1  O   -0.350740
     2  C    0.199709
     3  O   -0.284125
     4  C   -0.366222
     5  C    0.045915
     6  C   -0.171137
     7  C   -0.125552
     8  C   -0.162013
     9  C   -0.127142
    10  C   -0.168397
    11  H    0.333166
    12  H    0.217158
    13  H    0.216061
    14  H    0.147897
    15  H    0.148072
    16  H    0.151269
    17  H    0.147923
    18  H    0.148158
 Sum of Mulliken charges =  -0.00000

 Dipole moment (field-independent basis, Debye):
    X=              0.9269    Y=              0.1585    Z=              2.0993  Tot=              2.3003
 Quadrupole moment (field-independent basis, Debye-Ang):
   XX=            -46.1447   YY=            -52.1124   ZZ=            -64.8963
   XY=              0.1113   XZ=              2.1322   YZ=             -0.7244

 Normal termination of Gaussian 16 at Mon Feb 22 21:32:20 2021.
