 Gaussian 16, Revision C.01,

 -------------------------------------------------------------
 #P BP86/TZVP EmpiricalDispersion=GD3 SCRF=(Solvent=Water) Opt
 -------------------------------------------------------------

 -------------------------------------
 Particle #WLJVNTCWHIRURA-UHFFFAOYSA-N
 -------------------------------------
 Symbolic Z-matrix:
 Charge =  0 Multiplicity = 1

 SCF Done:  E(RB-P86) =  -575.141330175     A.U. after   14 cycles
 SCF Done:  E(RB-P86) =  -575.157560175     A.U. after   10 cycles
 SCF Done:  E(RB-P86) =  -575.159872670     A.U. after   10 cycles
 SCF Done:  E(RB-P86) =  -575.160058542     A.U. after   10 cycles
 SCF Done:  E(RB-P86) =  -575.160067425     A.U. after    9 cycles
 SCF Done:  E(RB-P86) =  -575.160101758     A.U. after    9 cycles
 SCF Done:  E(RB-P86) =  -575.160115522     A.U. after    9 cycles
 SCF Done:  E(RB-P86) =  -575.160217633     A.U. after   10 cycles
 SCF Done:  E(RB-P86) =  -575.160492153     A.U. after   13 cycles
 SCF Done:  E(RB-P86) =  -575.160756985     A.U. after   11 cycles
 SCF Done:  E(RB-P86) =  -575.161557191     A.U. after   10 cycles
 SCF Done:  E(RB-P86) =  -575.161905931     A.U. after   10 cycles
 SCF Done:  E(RB-P86) =  -575.161904009     A.U. after   10 cycles
 SCF Done:  E(RB-P86) =  -575.162085571     A.U. after   10 cycles
 SCF Done:  E(RB-P86) =  -575.162109115     A.U. after    9 cycles
 SCF Done:  E(RB-P86) =  -575.162113921     A.U. after    9 cycles
 SCF Done:  E(RB-P86) =  -575.162115389     A.U. after    8 cycles
 SCF Done:  E(RB-P86) =  -575.162117806     A.U. after    9 cycles
 SCF Done:  E(RB-P86) =  -575.162117795     A.U. after    7 cycles
 Optimization completed.
    -- Stationary point found.
 Normal termination of Gaussian 16 at Mon Feb 22 21:28:07 2021.
 Gaussian 16:  ES64L-G16RevC.01  3-Jul-2019

 ---------------------------------------------------------
 # BP86/TZVP SCRF=COSMORS geom=CHECKPOINT guess=CHECKPOINT
 ---------------------------------------------------------

 -------------------------------------------
 COSMO-file for #WLJVNTCWHIRURA-UHFFFAOYSA-N
 -------------------------------------------
 Structure from the checkpoint file:  "WLJVNTCWHIRURA-UHFFFAOYSA-N.chk"
 Charge =  0 Multiplicity = 1

                         Standard orientation:
 ---------------------------------------------------------------------
 Center     Atomic      Atomic             Coordinates (Angstroms)
 Number     Number       Type             X           Y           Z
 ---------------------------------------------------------------------
      1          8           0       -3.907075   -1.378039   -0.000662
      2          6           0       -3.822050   -0.159717   -0.000069
      3          8           0       -4.919554    0.652306    0.000451
      4          6           0       -2.542420    0.644809    0.000123
      5          6           0       -1.275934   -0.212475    0.000011
      6          6           0        0.000000    0.638508    0.000001
      7          6           0        1.275933   -0.212477    0.000023
      8          6           0        2.542418    0.644807   -0.000141
      9          6           0        3.822050   -0.159718    0.000059
     10          8           0        3.907080   -1.378039    0.000647
     11          8           0        4.919552    0.652309   -0.000446
     12          1           0       -5.713274    0.074973    0.000237
     13          1           0       -2.570594    1.312820   -0.877717
     14          1           0       -2.570618    1.312588    0.878130
     15          1           0       -1.282208   -0.873798    0.882130
     16          1           0       -1.282276   -0.873694   -0.882180
     17          1           0        0.000018    1.301774    0.883607
     18          1           0       -0.000016    1.301740   -0.883629
     19          1           0        1.282281   -0.873654    0.882246
     20          1           0        1.282200   -0.873841   -0.882065
     21          1           0        2.570604    1.312549   -0.878175
     22          1           0        2.570605    1.312852    0.877673
     23          1           0        5.713274    0.074979   -0.000232
 ---------------------------------------------------------------------

 SCF Done:  E(RB-P86) =  -575.151076635     A.U. after   10 cycles

 The electronic state is 1-A.
 Alpha  occ. eigenvalues --  -18.81871 -18.81871 -18.77012 -18.77012 -10.03243
 Alpha  occ. eigenvalues --  -10.03242  -9.91077  -9.91077  -9.89608  -9.89607
 Alpha  occ. eigenvalues --   -9.89320  -1.02086  -1.02085  -0.93917  -0.93916
 Alpha  occ. eigenvalues --   -0.74359  -0.71604  -0.66398  -0.60567  -0.55633
 Alpha  occ. eigenvalues --   -0.52075  -0.51861  -0.45503  -0.44692  -0.44520
 Alpha  occ. eigenvalues --   -0.43659  -0.43299  -0.42942  -0.40300  -0.37233
 Alpha  occ. eigenvalues --   -0.37108  -0.36706  -0.35550  -0.33529  -0.33066
 Alpha  occ. eigenvalues --   -0.30274  -0.29935  -0.29823  -0.29419  -0.29122
 Alpha  occ. eigenvalues --   -0.28271  -0.24863  -0.24825
 Alpha virt. eigenvalues --   -0.04599  -0.04529   0.02068   0.02733   0.03534
 Alpha virt. eigenvalues --    0.05294   0.05889   0.05964   0.08782   0.09994
 Alpha virt. eigenvalues --    0.10052   0.11829   0.11957   0.13373   0.13584

 Mulliken charges:
               1
     1  O   -0.363835
     2  C    0.203053
     3  O   -0.286555
     4  C   -0.267930
     5  C   -0.258201
     6  C   -0.282599
     7  C   -0.258314
     8  C   -0.267900
     9  C    0.203099
    10  O   -0.363842
    11  O   -0.286558
    12  H    0.330088
    13  H    0.183137
    14  H    0.183134
    15  H    0.140741
    16  H    0.140695
    17  H    0.136968
    18  H    0.136967
    19  H    0.140754
    20  H    0.140735
    21  H    0.183133
    22  H    0.183147
    23  H    0.330082
 Sum of Mulliken charges =  -0.00000

 Dipole moment (field-independent basis, Debye):
    X=             -0.0001    Y=              4.5252    Z=              0.0005  Tot=              4.5252
 Quadrupole moment (field-independent basis, Debye-Ang):
   XX=            -54.6259   YY=            -78.0073   ZZ=            -64.0306
   XY=              0.0004   XZ=             -0.0064   YZ=             -0.0003

 Normal termination of Gaussian 16 at Mon Feb 22 21:28:20 2021.
