 Gaussian 16, Revision C.01,

 -------------------------------------------------------------
 #P BP86/TZVP EmpiricalDispersion=GD3 SCRF=(Solvent=Water) Opt
 -------------------------------------------------------------

 -------------------------------------
 Particle #WNLRTRBMVRJNCN-UHFFFAOYSA-N
 -------------------------------------
 Symbolic Z-matrix:
 Charge =  0 Multiplicity = 1

 SCF Done:  E(RB-P86) =  -535.813249150     A.U. after   15 cycles
 SCF Done:  E(RB-P86) =  -535.829917530     A.U. after   11 cycles
 SCF Done:  E(RB-P86) =  -535.832305970     A.U. after   11 cycles
 SCF Done:  E(RB-P86) =  -535.832451147     A.U. after   10 cycles
 SCF Done:  E(RB-P86) =  -535.832463674     A.U. after   10 cycles
 SCF Done:  E(RB-P86) =  -535.832544281     A.U. after   10 cycles
 SCF Done:  E(RB-P86) =  -535.832557015     A.U. after    9 cycles
 SCF Done:  E(RB-P86) =  -535.832606274     A.U. after   10 cycles
 SCF Done:  E(RB-P86) =  -535.832710142     A.U. after   11 cycles
 SCF Done:  E(RB-P86) =  -535.831812542     A.U. after   14 cycles
 SCF Done:  E(RB-P86) =  -535.833623562     A.U. after    9 cycles
 SCF Done:  E(RB-P86) =  -535.833624831     A.U. after    8 cycles
 SCF Done:  E(RB-P86) =  -535.833625212     A.U. after    8 cycles
 SCF Done:  E(RB-P86) =  -535.833625224     A.U. after    6 cycles
 SCF Done:  E(RB-P86) =  -535.833625290     A.U. after    7 cycles
 SCF Done:  E(RB-P86) =  -535.833625331     A.U. after    7 cycles
 SCF Done:  E(RB-P86) =  -535.833625429     A.U. after    7 cycles
 SCF Done:  E(RB-P86) =  -535.833625369     A.U. after    7 cycles
 SCF Done:  E(RB-P86) =  -535.833625323     A.U. after    6 cycles
 Optimization completed.
    -- Stationary point found.
 Normal termination of Gaussian 16 at Mon Feb 22 21:29:53 2021.
 Gaussian 16:  ES64L-G16RevC.01  3-Jul-2019

 ---------------------------------------------------------
 # BP86/TZVP SCRF=COSMORS geom=CHECKPOINT guess=CHECKPOINT
 ---------------------------------------------------------

 -------------------------------------------
 COSMO-file for #WNLRTRBMVRJNCN-UHFFFAOYSA-N
 -------------------------------------------
 Structure from the checkpoint file:  "WNLRTRBMVRJNCN-UHFFFAOYSA-N.chk"
 Charge =  0 Multiplicity = 1

                         Standard orientation:
 ---------------------------------------------------------------------
 Center     Atomic      Atomic             Coordinates (Angstroms)
 Number     Number       Type             X           Y           Z
 ---------------------------------------------------------------------
      1          8           0        3.939207    0.322062    1.019827
      2          6           0        3.215631    0.096774    0.060992
      3          8           0        3.538247   -0.812477   -0.903965
      4          6           0        1.868692    0.729390   -0.195145
      5          6           0        0.715648   -0.249625    0.116931
      6          6           0       -0.655723    0.397799   -0.108890
      7          6           0       -1.798775   -0.568554    0.205521
      8          6           0       -3.170419    0.029678   -0.009790
      9          8           0       -3.407640    1.158429   -0.410637
     10          8           0       -4.155070   -0.861752    0.302628
     11          1           0        4.399611   -1.213232   -0.657278
     12          1           0        1.793397    1.622991    0.439155
     13          1           0        1.811559    1.041957   -1.249569
     14          1           0        0.816801   -1.144423   -0.518395
     15          1           0        0.799941   -0.588531    1.163308
     16          1           0       -0.752992    1.297468    0.520189
     17          1           0       -0.739288    0.737949   -1.153894
     18          1           0       -1.748370   -0.919813    1.250072
     19          1           0       -1.733009   -1.478348   -0.415252
     20          1           0       -5.015926   -0.418891    0.141121
 ---------------------------------------------------------------------

 SCF Done:  E(RB-P86) =  -535.825606755     A.U. after   11 cycles

 The electronic state is 1-A.
 Alpha  occ. eigenvalues --  -18.82002 -18.81932 -18.77064 -18.76991 -10.03321
 Alpha  occ. eigenvalues --  -10.03270  -9.91242  -9.91115  -9.90488  -9.90016
 Alpha  occ. eigenvalues --   -1.02160  -1.02146  -0.93992  -0.93921  -0.74554
 Alpha  occ. eigenvalues --   -0.70529  -0.63813  -0.57330  -0.54190  -0.52278
 Alpha  occ. eigenvalues --   -0.45391  -0.45245  -0.44035  -0.43742  -0.43363
 Alpha  occ. eigenvalues --   -0.41115  -0.40588  -0.36703  -0.36567  -0.36269
 Alpha  occ. eigenvalues --   -0.34522  -0.32279  -0.31555  -0.30926  -0.29787
 Alpha  occ. eigenvalues --   -0.29251  -0.28712  -0.24939  -0.24572
 Alpha virt. eigenvalues --   -0.04903  -0.04612   0.02081   0.02675   0.04299
 Alpha virt. eigenvalues --    0.06056   0.06338   0.07653   0.09115   0.10510
 Alpha virt. eigenvalues --    0.11016   0.11997   0.13050   0.13707   0.14745

 Mulliken charges:
               1
     1  O   -0.363669
     2  C    0.209247
     3  O   -0.281704
     4  C   -0.256239
     5  C   -0.295493
     6  C   -0.262359
     7  C   -0.267774
     8  C    0.205009
     9  O   -0.362960
    10  O   -0.286244
    11  H    0.330568
    12  H    0.164741
    13  H    0.170622
    14  H    0.155934
    15  H    0.146321
    16  H    0.146748
    17  H    0.145436
    18  H    0.184873
    19  H    0.186132
    20  H    0.330812
 Sum of Mulliken charges =  -0.00000

 Dipole moment (field-independent basis, Debye):
    X=             -1.1765    Y=             -2.8479    Z=             -1.0433  Tot=              3.2532
 Quadrupole moment (field-independent basis, Debye-Ang):
   XX=            -59.8850   YY=            -62.4003   ZZ=            -62.7443
   XY=              0.0495   XZ=            -10.6766   YZ=              0.6742

 Normal termination of Gaussian 16 at Mon Feb 22 21:30:04 2021.
