 Gaussian 16, Revision C.01,

 -------------------------------------------------------------
 #P BP86/TZVP EmpiricalDispersion=GD3 SCRF=(Solvent=Water) Opt
 -------------------------------------------------------------

 -------------------------------------
 Particle #WOAGQHQTBSCFJV-UHFFFAOYSA-N
 -------------------------------------
 Symbolic Z-matrix:
 Charge =  1 Multiplicity = 1

 SCF Done:  E(RB-P86) =  -352.905519822     A.U. after   12 cycles
 SCF Done:  E(RB-P86) =  -352.911776398     A.U. after   10 cycles
 SCF Done:  E(RB-P86) =  -352.912441337     A.U. after    9 cycles
 SCF Done:  E(RB-P86) =  -352.912578823     A.U. after    9 cycles
 SCF Done:  E(RB-P86) =  -352.912592113     A.U. after    8 cycles
 SCF Done:  E(RB-P86) =  -352.912593703     A.U. after    7 cycles
 Optimization completed.
    -- Stationary point found.
 Normal termination of Gaussian 16 at Tue Feb 23 00:13:50 2021.
 Gaussian 16:  ES64L-G16RevC.01  3-Jul-2019

 ---------------------------------------------------------
 # BP86/TZVP SCRF=COSMORS geom=CHECKPOINT guess=CHECKPOINT
 ---------------------------------------------------------

 -------------------------------------------
 COSMO-file for #WOAGQHQTBSCFJV-UHFFFAOYSA-N
 -------------------------------------------
 Structure from the checkpoint file:  "WOAGQHQTBSCFJV-UHFFFAOYSA-N.chk"
 Charge =  1 Multiplicity = 1

                         Standard orientation:
 ---------------------------------------------------------------------
 Center     Atomic      Atomic             Coordinates (Angstroms)
 Number     Number       Type             X           Y           Z
 ---------------------------------------------------------------------
      1          6           0       -1.112562   -0.814532   -1.235710
      2          7           0       -0.867056    0.023532   -0.000000
      3          6           0       -1.833409    1.189437    0.000000
      4          6           0       -1.112560   -0.814532    1.235711
      5          6           0        0.542144    0.599219   -0.000001
      6          6           0        1.669819   -0.433962   -0.000000
      7          9           0        2.864739    0.315237   -0.000000
      8          1           0       -0.482535   -1.708371   -1.200965
      9          1           0       -0.877677   -0.214751   -2.121600
     10          1           0       -2.167255   -1.109375   -1.245155
     11          1           0       -2.853803    0.792316   -0.000001
     12          1           0       -1.659480    1.790093    0.899188
     13          1           0       -1.659479    1.790094   -0.899187
     14          1           0       -0.482532   -1.708369    1.200966
     15          1           0       -0.877676   -0.214749    2.121600
     16          1           0       -2.167253   -1.109375    1.245156
     17          1           0        0.626854    1.232193    0.892319
     18          1           0        0.626854    1.232192   -0.892321
     19          1           0        1.670068   -1.063764    0.900210
     20          1           0        1.670069   -1.063765   -0.900209
 ---------------------------------------------------------------------

 SCF Done:  E(RB-P86) =  -352.905087568     A.U. after   10 cycles

 The electronic state is 1-A.
 Alpha  occ. eigenvalues --  -24.28026 -14.14420  -9.98632  -9.96237  -9.94830
 Alpha  occ. eigenvalues --   -9.94826  -9.94780  -1.10681  -0.94323  -0.72159
 Alpha  occ. eigenvalues --   -0.68527  -0.68481  -0.62205  -0.56280  -0.49416
 Alpha  occ. eigenvalues --   -0.48420  -0.47531  -0.45347  -0.44513  -0.41094
 Alpha  occ. eigenvalues --   -0.39252  -0.38459  -0.36505  -0.36340  -0.36190
 Alpha  occ. eigenvalues --   -0.36107  -0.35975  -0.31338  -0.30525
 Alpha virt. eigenvalues --   -0.01570   0.01922   0.03910   0.04973   0.05250
 Alpha virt. eigenvalues --    0.05541   0.05776   0.05919   0.08308   0.08646
 Alpha virt. eigenvalues --    0.09983   0.10918   0.11054   0.12683   0.13203

 Mulliken charges:
               1
     1  C   -0.304617
     2  N   -0.212613
     3  C   -0.277173
     4  C   -0.304798
     5  C   -0.183281
     6  C   -0.056266
     7  F   -0.243942
     8  H    0.205021
     9  H    0.202635
    10  H    0.199971
    11  H    0.199926
    12  H    0.197659
    13  H    0.197615
    14  H    0.205042
    15  H    0.202661
    16  H    0.199970
    17  H    0.212326
    18  H    0.212303
    19  H    0.173812
    20  H    0.173748
 Sum of Mulliken charges =   1.00000

 Dipole moment (field-independent basis, Debye):
    X=             -6.2021    Y=             -1.0059    Z=             -0.0008  Tot=              6.2831
 Quadrupole moment (field-independent basis, Debye-Ang):
   XX=            -40.3531   YY=            -35.8410   ZZ=            -35.7550
   XY=             -2.8268   XZ=              0.0027   YZ=             -0.0007

 Normal termination of Gaussian 16 at Tue Feb 23 00:14:00 2021.
