 Gaussian 16, Revision C.01,

 -------------------------------------------------------------
 #P BP86/TZVP EmpiricalDispersion=GD3 SCRF=(Solvent=Water) Opt
 -------------------------------------------------------------

 -------------------------------------
 Particle #WPYMKLBDIGXBTP-UHFFFAOYSA-N
 -------------------------------------
 Symbolic Z-matrix:
 Charge =  0 Multiplicity = 1

 SCF Done:  E(RB-P86) =  -420.961686439     A.U. after   13 cycles
 SCF Done:  E(RB-P86) =  -420.987554294     A.U. after   12 cycles
 SCF Done:  E(RB-P86) =  -420.990923063     A.U. after   11 cycles
 SCF Done:  E(RB-P86) =  -420.991042768     A.U. after   10 cycles
 SCF Done:  E(RB-P86) =  -420.991054203     A.U. after    9 cycles
 SCF Done:  E(RB-P86) =  -420.991052720     A.U. after    9 cycles
 SCF Done:  E(RB-P86) =  -420.991055103     A.U. after    8 cycles
 Optimization completed.
    -- Stationary point found.
 Normal termination of Gaussian 16 at Mon Feb 22 21:26:08 2021.
 Gaussian 16:  ES64L-G16RevC.01  3-Jul-2019

 ---------------------------------------------------------
 # BP86/TZVP SCRF=COSMORS geom=CHECKPOINT guess=CHECKPOINT
 ---------------------------------------------------------

 -------------------------------------------
 COSMO-file for #WPYMKLBDIGXBTP-UHFFFAOYSA-N
 -------------------------------------------
 Structure from the checkpoint file:  "WPYMKLBDIGXBTP-UHFFFAOYSA-N.chk"
 Charge =  0 Multiplicity = 1

                         Standard orientation:
 ---------------------------------------------------------------------
 Center     Atomic      Atomic             Coordinates (Angstroms)
 Number     Number       Type             X           Y           Z
 ---------------------------------------------------------------------
      1          8           0        2.345201    1.170070   -0.003207
      2          6           0        1.710001    0.122369    0.000264
      3          8           0        2.318725   -1.098817    0.002708
      4          6           0        0.222751    0.029727    0.000283
      5          6           0       -0.515906    1.227007    0.001285
      6          6           0       -1.911140    1.189078    0.001212
      7          6           0       -2.578372   -0.043707   -0.000131
      8          6           0       -1.846980   -1.238716   -0.001328
      9          6           0       -0.450058   -1.206317   -0.001047
     10          1           0        3.286163   -0.939085    0.001112
     11          1           0        0.017917    2.178728    0.002235
     12          1           0       -2.480904    2.120106    0.002158
     13          1           0       -3.669887   -0.072983   -0.000338
     14          1           0       -2.367158   -2.198381   -0.002456
     15          1           0        0.120686   -2.135061   -0.001952
 ---------------------------------------------------------------------

 SCF Done:  E(RB-P86) =  -420.985734652     A.U. after   11 cycles

 The electronic state is 1-A.
 Alpha  occ. eigenvalues --  -18.82215 -18.77104 -10.03741  -9.92923  -9.91852
 Alpha  occ. eigenvalues --   -9.91759  -9.91643  -9.91335  -9.91333  -1.02421
 Alpha  occ. eigenvalues --   -0.94109  -0.79715  -0.70834  -0.69120  -0.60923
 Alpha  occ. eigenvalues --   -0.56235  -0.53733  -0.48864  -0.45232  -0.43138
 Alpha  occ. eigenvalues --   -0.41477  -0.41318  -0.40237  -0.38732  -0.36245
 Alpha  occ. eigenvalues --   -0.34350  -0.32545  -0.31306  -0.29495  -0.25326
 Alpha  occ. eigenvalues --   -0.24930  -0.24638
 Alpha virt. eigenvalues --   -0.09599  -0.05628  -0.00234   0.02730   0.04824
 Alpha virt. eigenvalues --    0.07551   0.08353   0.09797   0.09841   0.10836
 Alpha virt. eigenvalues --    0.11764   0.13760   0.16942   0.17027   0.18037

 Mulliken charges:
               1
     1  O   -0.363860
     2  C    0.196019
     3  O   -0.282109
     4  C   -0.094260
     5  C   -0.095452
     6  C   -0.150963
     7  C   -0.111786
     8  C   -0.142065
     9  C   -0.080293
    10  H    0.335161
    11  H    0.156273
    12  H    0.155600
    13  H    0.156885
    14  H    0.156183
    15  H    0.164667
 Sum of Mulliken charges =  -0.00000

 Dipole moment (field-independent basis, Debye):
    X=             -2.0687    Y=             -2.0571    Z=              0.0038  Tot=              2.9174
 Quadrupole moment (field-independent basis, Debye-Ang):
   XX=            -42.1491   YY=            -50.1055   ZZ=            -54.9585
   XY=             -6.9878   XZ=              0.0131   YZ=              0.0277

 Normal termination of Gaussian 16 at Mon Feb 22 21:26:16 2021.
