 Gaussian 16, Revision C.01,

 -------------------------------------------------------------
 #P BP86/TZVP EmpiricalDispersion=GD3 SCRF=(Solvent=Water) Opt
 -------------------------------------------------------------

 -------------------------------------
 Particle #XMIIGOLPHOKFCH-UHFFFAOYSA-N
 -------------------------------------
 Symbolic Z-matrix:
 Charge =  0 Multiplicity = 1

 SCF Done:  E(RB-P86) =  -499.617123880     A.U. after   14 cycles
 SCF Done:  E(RB-P86) =  -499.641334702     A.U. after   12 cycles
 SCF Done:  E(RB-P86) =  -499.643753035     A.U. after   11 cycles
 SCF Done:  E(RB-P86) =  -499.643897270     A.U. after   10 cycles
 SCF Done:  E(RB-P86) =  -499.644228943     A.U. after   10 cycles
 SCF Done:  E(RB-P86) =  -499.644556700     A.U. after   11 cycles
 SCF Done:  E(RB-P86) =  -499.645164603     A.U. after   14 cycles
 SCF Done:  E(RB-P86) =  -499.645485028     A.U. after   10 cycles
 SCF Done:  E(RB-P86) =  -499.645851583     A.U. after   11 cycles
 SCF Done:  E(RB-P86) =  -499.645853902     A.U. after   10 cycles
 SCF Done:  E(RB-P86) =  -499.646059978     A.U. after   10 cycles
 SCF Done:  E(RB-P86) =  -499.646071160     A.U. after   10 cycles
 SCF Done:  E(RB-P86) =  -499.646080761     A.U. after   10 cycles
 SCF Done:  E(RB-P86) =  -499.646086048     A.U. after    9 cycles
 SCF Done:  E(RB-P86) =  -499.646090856     A.U. after   10 cycles
 SCF Done:  E(RB-P86) =  -499.646091624     A.U. after    9 cycles
 SCF Done:  E(RB-P86) =  -499.646091318     A.U. after    8 cycles
 SCF Done:  E(RB-P86) =  -499.646091535     A.U. after    8 cycles
 SCF Done:  E(RB-P86) =  -499.646091431     A.U. after    7 cycles
 Optimization completed.
    -- Stationary point found.
 Normal termination of Gaussian 16 at Mon Feb 22 21:35:27 2021.
 Gaussian 16:  ES64L-G16RevC.01  3-Jul-2019

 ---------------------------------------------------------
 # BP86/TZVP SCRF=COSMORS geom=CHECKPOINT guess=CHECKPOINT
 ---------------------------------------------------------

 -------------------------------------------
 COSMO-file for #XMIIGOLPHOKFCH-UHFFFAOYSA-N
 -------------------------------------------
 Structure from the checkpoint file:  "XMIIGOLPHOKFCH-UHFFFAOYSA-N.chk"
 Charge =  0 Multiplicity = 1

                         Standard orientation:
 ---------------------------------------------------------------------
 Center     Atomic      Atomic             Coordinates (Angstroms)
 Number     Number       Type             X           Y           Z
 ---------------------------------------------------------------------
      1          8           0        2.311183   -1.206509    0.573204
      2          6           0        2.275511   -0.267818   -0.207194
      3          8           0        2.740578   -0.355612   -1.485194
      4          6           0        1.759421    1.119396    0.111045
      5          6           0        0.611002    1.106784    1.138817
      6          6           0       -0.656825    0.498866    0.575848
      7          6           0       -0.994645   -0.841112    0.830069
      8          6           0       -2.147932   -1.408230    0.273314
      9          6           0       -2.982498   -0.641513   -0.548985
     10          6           0       -2.656081    0.696038   -0.810152
     11          6           0       -1.502874    1.258516   -0.251970
     12          1           0        3.100971   -1.261094   -1.606619
     13          1           0        2.619527    1.683272    0.512385
     14          1           0        1.457196    1.621458   -0.818980
     15          1           0        0.421419    2.145535    1.449775
     16          1           0        0.934995    0.550477    2.030820
     17          1           0       -0.340030   -1.442860    1.464709
     18          1           0       -2.395763   -2.451177    0.484086
     19          1           0       -3.883411   -1.081751   -0.981901
     20          1           0       -3.303928    1.303419   -1.446446
     21          1           0       -1.255539    2.304133   -0.456656
 ---------------------------------------------------------------------

 SCF Done:  E(RB-P86) =  -499.633444277     A.U. after   11 cycles

 The electronic state is 1-A.
 Alpha  occ. eigenvalues --  -18.82143 -18.77036 -10.03356  -9.91536  -9.91243
 Alpha  occ. eigenvalues --   -9.90595  -9.90341  -9.90315  -9.90211  -9.90180
 Alpha  occ. eigenvalues --   -9.90122  -1.02274  -0.94055  -0.78621  -0.73178
 Alpha  occ. eigenvalues --   -0.67842  -0.67786  -0.61256  -0.55038  -0.54790
 Alpha  occ. eigenvalues --   -0.51753  -0.46288  -0.45657  -0.43769  -0.43199
 Alpha  occ. eigenvalues --   -0.40997  -0.40455  -0.37723  -0.37440  -0.36793
 Alpha  occ. eigenvalues --   -0.35670  -0.33685  -0.32524  -0.32318  -0.29768
 Alpha  occ. eigenvalues --   -0.29747  -0.29223  -0.24928  -0.23495  -0.22786
 Alpha virt. eigenvalues --   -0.05084  -0.04622  -0.04569   0.02749   0.03997
 Alpha virt. eigenvalues --    0.05269   0.06279   0.07778   0.08542   0.09182
 Alpha virt. eigenvalues --    0.09586   0.10288   0.11132   0.11892   0.12750

 Mulliken charges:
               1
     1  O   -0.353281
     2  C    0.200420
     3  O   -0.284424
     4  C   -0.285916
     5  C   -0.331833
     6  C    0.018157
     7  C   -0.149043
     8  C   -0.144143
     9  C   -0.160408
    10  C   -0.130057
    11  C   -0.175320
    12  H    0.330391
    13  H    0.205891
    14  H    0.179990
    15  H    0.178652
    16  H    0.170967
    17  H    0.142115
    18  H    0.145315
    19  H    0.148485
    20  H    0.146694
    21  H    0.147349
 Sum of Mulliken charges =  -0.00000

 Dipole moment (field-independent basis, Debye):
    X=              0.5339    Y=              1.8191    Z=             -1.3347  Tot=              2.3186
 Quadrupole moment (field-independent basis, Debye-Ang):
   XX=            -60.3687   YY=            -59.2696   ZZ=            -66.3520
   XY=              2.8931   XZ=             -0.4699   YZ=              3.5529

 Normal termination of Gaussian 16 at Mon Feb 22 21:35:41 2021.
