 Gaussian 16, Revision C.01,

 -------------------------------------------------------------
 #P BP86/TZVP EmpiricalDispersion=GD3 SCRF=(Solvent=Water) Opt
 -------------------------------------------------------------

 -------------------------------------
 Particle #XSQUKJJJFZCRTK-UHFFFAOYSA-N
 -------------------------------------
 Symbolic Z-matrix:
 Charge =  0 Multiplicity = 1

 SCF Done:  E(RB-P86) =  -225.371749313     A.U. after   11 cycles
 SCF Done:  E(RB-P86) =  -225.381573281     A.U. after    9 cycles
 SCF Done:  E(RB-P86) =  -225.381796984     A.U. after    9 cycles
 SCF Done:  E(RB-P86) =  -225.381818913     A.U. after    8 cycles
 SCF Done:  E(RB-P86) =  -225.381819993     A.U. after    8 cycles
 Optimization completed.
    -- Stationary point found.
 Normal termination of Gaussian 16 at Mon Feb 22 21:29:37 2021.
 Gaussian 16:  ES64L-G16RevC.01  3-Jul-2019

 ---------------------------------------------------------
 # BP86/TZVP SCRF=COSMORS geom=CHECKPOINT guess=CHECKPOINT
 ---------------------------------------------------------

 -------------------------------------------
 COSMO-file for #XSQUKJJJFZCRTK-UHFFFAOYSA-N
 -------------------------------------------
 Structure from the checkpoint file:  "XSQUKJJJFZCRTK-UHFFFAOYSA-N.chk"
 Charge =  0 Multiplicity = 1

                         Standard orientation:
 ---------------------------------------------------------------------
 Center     Atomic      Atomic             Coordinates (Angstroms)
 Number     Number       Type             X           Y           Z
 ---------------------------------------------------------------------
      1          7           0       -1.163073   -0.598888   -0.000045
      2          6           0       -0.000000    0.130645    0.000240
      3          7           0        1.163073   -0.598888   -0.000043
      4          8           0        0.000000    1.376161   -0.000064
      5          1           0       -1.192972   -1.612351   -0.000040
      6          1           0       -2.039847   -0.092010   -0.000118
      7          1           0        2.039847   -0.092009   -0.000128
      8          1           0        1.192972   -1.612352   -0.000036
 ---------------------------------------------------------------------

 SCF Done:  E(RB-P86) =  -225.387220030     A.U. after    9 cycles

 The electronic state is 1-A.
 Alpha  occ. eigenvalues --  -18.73195 -14.01193 -14.01193 -10.01963  -0.95703
 Alpha  occ. eigenvalues --   -0.83718  -0.79873  -0.56071  -0.49876  -0.48474
 Alpha  occ. eigenvalues --   -0.42360  -0.38399  -0.37685  -0.23677  -0.23348
 Alpha  occ. eigenvalues --   -0.23104
 Alpha virt. eigenvalues --    0.01364   0.02230   0.06739   0.07890   0.11127
 Alpha virt. eigenvalues --    0.11916   0.17239   0.20492   0.20890   0.25076
 Alpha virt. eigenvalues --    0.31328   0.31409   0.32849   0.34274   0.35742

 Mulliken charges:
               1
     1  N   -0.442822
     2  C    0.234393
     3  N   -0.442824
     4  O   -0.499147
     5  H    0.290272
     6  H    0.284929
     7  H    0.284933
     8  H    0.290266
 Sum of Mulliken charges =  -0.00000

 Dipole moment (field-independent basis, Debye):
    X=              0.0000    Y=             -6.1403    Z=              0.0002  Tot=              6.1403
 Quadrupole moment (field-independent basis, Debye-Ang):
   XX=            -15.2846   YY=            -24.7111   ZZ=            -26.4931
   XY=              0.0001   XZ=              0.0001   YZ=              0.0002

 Normal termination of Gaussian 16 at Mon Feb 22 21:29:40 2021.
