 Gaussian 16, Revision C.01,

 -------------------------------------------------------------
 #P BP86/TZVP EmpiricalDispersion=GD3 SCRF=(Solvent=Water) Opt
 -------------------------------------------------------------

 -------------------------------------
 Particle #YBBLOADPFWKNGS-UHFFFAOYSA-N
 -------------------------------------
 Symbolic Z-matrix:
 Charge =  0 Multiplicity = 1

 SCF Done:  E(RB-P86) =  -304.002859836     A.U. after   12 cycles
 SCF Done:  E(RB-P86) =  -304.012737133     A.U. after   11 cycles
 SCF Done:  E(RB-P86) =  -304.013406765     A.U. after   10 cycles
 SCF Done:  E(RB-P86) =  -304.013588279     A.U. after    9 cycles
 SCF Done:  E(RB-P86) =  -304.013618814     A.U. after    9 cycles
 SCF Done:  E(RB-P86) =  -304.013665683     A.U. after    9 cycles
 SCF Done:  E(RB-P86) =  -304.012674266     A.U. after   12 cycles
 SCF Done:  E(RB-P86) =  -304.013810612     A.U. after   10 cycles
 SCF Done:  E(RB-P86) =  -304.013894313     A.U. after   10 cycles
 SCF Done:  E(RB-P86) =  -304.014114366     A.U. after   10 cycles
 SCF Done:  E(RB-P86) =  -304.015906324     A.U. after    9 cycles
 SCF Done:  E(RB-P86) =  -304.015917696     A.U. after    9 cycles
 SCF Done:  E(RB-P86) =  -304.015925107     A.U. after    9 cycles
 SCF Done:  E(RB-P86) =  -304.015930128     A.U. after    8 cycles
 SCF Done:  E(RB-P86) =  -304.015932181     A.U. after    8 cycles
 SCF Done:  E(RB-P86) =  -304.015932630     A.U. after    8 cycles
 SCF Done:  E(RB-P86) =  -304.015932766     A.U. after    7 cycles
 SCF Done:  E(RB-P86) =  -304.015932967     A.U. after    8 cycles
 SCF Done:  E(RB-P86) =  -304.015933006     A.U. after    6 cycles
 Optimization completed.
    -- Stationary point found.
 Normal termination of Gaussian 16 at Mon Feb 22 21:32:56 2021.
 Gaussian 16:  ES64L-G16RevC.01  3-Jul-2019

 ---------------------------------------------------------
 # BP86/TZVP SCRF=COSMORS geom=CHECKPOINT guess=CHECKPOINT
 ---------------------------------------------------------

 -------------------------------------------
 COSMO-file for #YBBLOADPFWKNGS-UHFFFAOYSA-N
 -------------------------------------------
 Structure from the checkpoint file:  "YBBLOADPFWKNGS-UHFFFAOYSA-N.chk"
 Charge =  0 Multiplicity = 1

                         Standard orientation:
 ---------------------------------------------------------------------
 Center     Atomic      Atomic             Coordinates (Angstroms)
 Number     Number       Type             X           Y           Z
 ---------------------------------------------------------------------
      1          6           0        1.157670    1.380454   -0.038001
      2          7           0        0.590295    0.033422   -0.074593
      3          6           0        1.525198   -1.078591    0.073213
      4          6           0       -0.763100   -0.206162   -0.018395
      5          7           0       -1.582083    0.919998   -0.008528
      6          8           0       -1.254406   -1.352948   -0.044509
      7          1           0        2.194802    1.333477   -0.394041
      8          1           0        0.608503    2.055784   -0.709322
      9          1           0        1.165507    1.806182    0.981622
     10          1           0        2.056516   -1.019522    1.038586
     11          1           0        0.968123   -2.020143    0.028314
     12          1           0        2.268530   -1.059955   -0.738993
     13          1           0       -2.550983    0.700944    0.206195
     14          1           0       -1.251847    1.778672    0.424654
 ---------------------------------------------------------------------

 SCF Done:  E(RB-P86) =  -304.012775321     A.U. after   10 cycles

 The electronic state is 1-A.
 Alpha  occ. eigenvalues --  -18.73214 -14.03226 -14.01101 -10.01413  -9.92550
 Alpha  occ. eigenvalues --   -9.91966  -0.95796  -0.85844  -0.81320  -0.65362
 Alpha  occ. eigenvalues --   -0.63106  -0.51300  -0.49046  -0.45174  -0.42548
 Alpha  occ. eigenvalues --   -0.40673  -0.37742  -0.35788  -0.35557  -0.35536
 Alpha  occ. eigenvalues --   -0.33526  -0.24413  -0.22728  -0.20692
 Alpha virt. eigenvalues --    0.00406   0.02119   0.05304   0.06722   0.07724
 Alpha virt. eigenvalues --    0.09145   0.09620   0.10848   0.10987   0.11659
 Alpha virt. eigenvalues --    0.13935   0.15646   0.17239   0.19100   0.21040

 Mulliken charges:
               1
     1  C   -0.349521
     2  N   -0.198197
     3  C   -0.311291
     4  C    0.248785
     5  N   -0.423635
     6  O   -0.496952
     7  H    0.167546
     8  H    0.167687
     9  H    0.172378
    10  H    0.157748
    11  H    0.153530
    12  H    0.159696
    13  H    0.271470
    14  H    0.280756
 Sum of Mulliken charges =  -0.00000

 Dipole moment (field-independent basis, Debye):
    X=              2.9089    Y=              5.1252    Z=              1.4566  Tot=              6.0705
 Quadrupole moment (field-independent basis, Debye-Ang):
   XX=            -33.1732   YY=            -37.8833   ZZ=            -38.1809
   XY=             -6.4888   XZ=             -2.2931   YZ=              1.5037

 Normal termination of Gaussian 16 at Mon Feb 22 21:33:02 2021.
