 Gaussian 16, Revision C.01,

 -------------------------------------------------------------
 #P BP86/TZVP EmpiricalDispersion=GD3 SCRF=(Solvent=Water) Opt
 -------------------------------------------------------------

 -------------------------------------
 Particle #YCOXTKKNXUZSKD-UHFFFAOYSA-N
 -------------------------------------
 Symbolic Z-matrix:
 Charge =  0 Multiplicity = 1

 SCF Done:  E(RB-P86) =  -386.234650645     A.U. after   13 cycles
 SCF Done:  E(RB-P86) =  -386.248226019     A.U. after   12 cycles
 SCF Done:  E(RB-P86) =  -386.248503988     A.U. after   10 cycles
 SCF Done:  E(RB-P86) =  -386.248536134     A.U. after    9 cycles
 SCF Done:  E(RB-P86) =  -386.248554662     A.U. after    9 cycles
 SCF Done:  E(RB-P86) =  -386.248558959     A.U. after    9 cycles
 SCF Done:  E(RB-P86) =  -386.248559859     A.U. after    8 cycles
 Optimization completed.
    -- Stationary point found.
 Normal termination of Gaussian 16 at Mon Feb 22 21:31:05 2021.
 Gaussian 16:  ES64L-G16RevC.01  3-Jul-2019

 ---------------------------------------------------------
 # BP86/TZVP SCRF=COSMORS geom=CHECKPOINT guess=CHECKPOINT
 ---------------------------------------------------------

 -------------------------------------------
 COSMO-file for #YCOXTKKNXUZSKD-UHFFFAOYSA-N
 -------------------------------------------
 Structure from the checkpoint file:  "YCOXTKKNXUZSKD-UHFFFAOYSA-N.chk"
 Charge =  0 Multiplicity = 1

                         Standard orientation:
 ---------------------------------------------------------------------
 Center     Atomic      Atomic             Coordinates (Angstroms)
 Number     Number       Type             X           Y           Z
 ---------------------------------------------------------------------
      1          6           0       -2.542729   -0.996783   -0.000103
      2          6           0       -1.082972   -0.611040    0.000044
      3          6           0       -0.081382   -1.592162   -0.000020
      4          6           0        1.280142   -1.265317    0.000209
      5          6           0        1.656083    0.083190   -0.000054
      6          8           0        2.973146    0.498125   -0.000066
      7          6           0        0.670417    1.080585   -0.000098
      8          6           0       -0.691539    0.751629   -0.000231
      9          6           0       -1.732430    1.844993    0.000180
     10          1           0       -3.069447   -0.596524    0.882193
     11          1           0       -2.664284   -2.089019    0.002405
     12          1           0       -3.067991   -0.600913   -0.885288
     13          1           0       -0.368952   -2.647086    0.000238
     14          1           0        2.038562   -2.052510    0.000278
     15          1           0        3.555208   -0.284435    0.000208
     16          1           0        0.983919    2.127405   -0.000333
     17          1           0       -2.385339    1.775311    0.885745
     18          1           0       -1.269494    2.841180   -0.003614
     19          1           0       -2.390880    1.771018   -0.880861
 ---------------------------------------------------------------------

 SCF Done:  E(RB-P86) =  -386.238653233     A.U. after   11 cycles

 The electronic state is 1-A.
 Alpha  occ. eigenvalues --  -18.79970  -9.95884  -9.91083  -9.90287  -9.89972
 Alpha  occ. eigenvalues --   -9.89799  -9.89532  -9.89007  -9.88882  -0.97212
 Alpha  occ. eigenvalues --   -0.78308  -0.70328  -0.69234  -0.63324  -0.60504
 Alpha  occ. eigenvalues --   -0.54847  -0.53415  -0.47516  -0.43986  -0.41848
 Alpha  occ. eigenvalues --   -0.38835  -0.38756  -0.36666  -0.35909  -0.35779
 Alpha  occ. eigenvalues --   -0.35084  -0.33903  -0.32476  -0.30855  -0.29394
 Alpha  occ. eigenvalues --   -0.28626  -0.22597  -0.19624
 Alpha virt. eigenvalues --   -0.04240  -0.02825   0.03072   0.03358   0.05117
 Alpha virt. eigenvalues --    0.06351   0.08174   0.09172   0.09492   0.09608
 Alpha virt. eigenvalues --    0.10671   0.12271   0.13516   0.13902   0.15317

 Mulliken charges:
               1
     1  C   -0.480947
     2  C   -0.009223
     3  C   -0.136063
     4  C   -0.227927
     5  C    0.131803
     6  O   -0.332523
     7  C   -0.239920
     8  C    0.054983
     9  C   -0.483346
    10  H    0.158546
    11  H    0.157743
    12  H    0.158828
    13  H    0.137694
    14  H    0.156023
    15  H    0.327233
    16  H    0.142518
    17  H    0.162148
    18  H    0.160823
    19  H    0.161606
 Sum of Mulliken charges =  -0.00000

 Dipole moment (field-independent basis, Debye):
    X=             -0.4588    Y=             -1.5464    Z=              0.0034  Tot=              1.6130
 Quadrupole moment (field-independent basis, Debye-Ang):
   XX=            -45.8077   YY=            -50.1297   ZZ=            -58.2436
   XY=             -6.9736   XZ=              0.0001   YZ=             -0.0001

 Normal termination of Gaussian 16 at Mon Feb 22 21:31:16 2021.
