 Gaussian 16, Revision C.01,

 -------------------------------------------------------------
 #P BP86/TZVP EmpiricalDispersion=GD3 SCRF=(Solvent=Water) Opt
 -------------------------------------------------------------

 -------------------------------------
 Particle #YMBCJWGVCUEGHA-UHFFFAOYSA-M
 -------------------------------------
 Symbolic Z-matrix:
 Charge =  0 Multiplicity = 1

 SCF Done:  E(RB-P86) =  -832.047806483     A.U. after   12 cycles
 SCF Done:  E(RB-P86) =  -832.057366494     A.U. after   10 cycles
 SCF Done:  E(RB-P86) =  -832.063498856     A.U. after   10 cycles
 SCF Done:  E(RB-P86) =  -832.063191254     A.U. after   10 cycles
 SCF Done:  E(RB-P86) =  -832.066185577     A.U. after   10 cycles
 SCF Done:  E(RB-P86) =  -832.066693508     A.U. after    9 cycles
 SCF Done:  E(RB-P86) =  -832.066905852     A.U. after    9 cycles
 SCF Done:  E(RB-P86) =  -832.066970727     A.U. after    8 cycles
 SCF Done:  E(RB-P86) =  -832.067004302     A.U. after    8 cycles
 SCF Done:  E(RB-P86) =  -832.067032414     A.U. after    9 cycles
 SCF Done:  E(RB-P86) =  -832.067044641     A.U. after    6 cycles
 SCF Done:  E(RB-P86) =  -832.067045814     A.U. after    7 cycles
 SCF Done:  E(RB-P86) =  -832.067046955     A.U. after    7 cycles
 SCF Done:  E(RB-P86) =  -832.067047365     A.U. after    7 cycles
 SCF Done:  E(RB-P86) =  -832.067047823     A.U. after    6 cycles
 SCF Done:  E(RB-P86) =  -832.067047956     A.U. after    6 cycles
 SCF Done:  E(RB-P86) =  -832.067047998     A.U. after    6 cycles
 SCF Done:  E(RB-P86) =  -832.067047953     A.U. after    6 cycles
 SCF Done:  E(RB-P86) =  -832.067047918     A.U. after    6 cycles
 Optimization completed.
    -- Stationary point found.
 Normal termination of Gaussian 16 at Sat Aug 21 09:42:57 2021.
 Gaussian 16:  ES64L-G16RevC.01  3-Jul-2019

 ---------------------------------------------------------
 # BP86/TZVP SCRF=COSMORS geom=CHECKPOINT guess=CHECKPOINT
 ---------------------------------------------------------

 -------------------------------------------
 COSMO-file for #YMBCJWGVCUEGHA-UHFFFAOYSA-M
 -------------------------------------------
 Structure from the checkpoint file:  "YMBCJWGVCUEGHA-UHFFFAOYSA-M.chk"
 Charge =  0 Multiplicity = 1

                         Standard orientation:
 ---------------------------------------------------------------------
 Center     Atomic      Atomic             Coordinates (Angstroms)
 Number     Number       Type             X           Y           Z
 ---------------------------------------------------------------------
      1          6           0       -0.433131    0.747154    2.381563
      2          6           0       -0.190236    0.979072    0.894852
      3          7           0       -0.556888   -0.195951   -0.015412
      4          6           0       -0.048044    0.108451   -1.432251
      5          6           0       -0.619515    1.337983   -2.123312
      6          6           0        0.211580   -1.432680    0.484764
      7          6           0        0.051046   -2.695733   -0.350973
      8          6           0       -2.061748   -0.504367    0.002345
      9          6           0       -3.009410    0.684751    0.117513
     10         17           0        3.319407    0.453608    0.015588
     11          1           0       -1.442978    0.373483    2.601555
     12          1           0       -0.323898    1.716156    2.889171
     13          1           0        0.299695    0.060000    2.823097
     14          1           0       -0.769455    1.836542    0.537771
     15          1           0        0.876890    1.166932    0.697317
     16          1           0       -0.272133   -0.784480   -2.026835
     17          1           0        1.044169    0.193188   -1.316597
     18          1           0       -0.073028    1.451237   -3.071132
     19          1           0       -0.472831    2.263792   -1.552236
     20          1           0       -1.682251    1.228980   -2.372751
     21          1           0        1.264851   -1.113355    0.529050
     22          1           0       -0.149920   -1.611358    1.503728
     23          1           0       -0.996899   -3.003203   -0.468590
     24          1           0        0.515017   -2.615059   -1.342100
     25          1           0        0.569413   -3.503382    0.185991
     26          1           0       -2.220043   -1.183632    0.849884
     27          1           0       -2.259031   -1.069758   -0.916769
     28          1           0       -2.881196    1.423645   -0.680592
     29          1           0       -2.929408    1.195537    1.085480
     30          1           0       -4.031915    0.287281    0.040441
 ---------------------------------------------------------------------

 SCF Done:  E(RB-P86) =  -832.038664227     A.U. after    9 cycles

 The electronic state is 1-A.
 Alpha  occ. eigenvalues -- -100.64563 -14.11865  -9.94826  -9.94333  -9.94315
 Alpha  occ. eigenvalues --   -9.94266  -9.89763  -9.89719  -9.89706  -9.89699
 Alpha  occ. eigenvalues --   -9.08436  -6.90252  -6.90248  -6.90247  -0.91849
 Alpha  occ. eigenvalues --   -0.71568  -0.71342  -0.71126  -0.66750  -0.63509
 Alpha  occ. eigenvalues --   -0.59946  -0.58651  -0.58318  -0.51816  -0.46650
 Alpha  occ. eigenvalues --   -0.46222  -0.45278  -0.42342  -0.41544  -0.39060
 Alpha  occ. eigenvalues --   -0.38480  -0.36650  -0.35691  -0.35392  -0.35201
 Alpha  occ. eigenvalues --   -0.34785  -0.34095  -0.33853  -0.32434  -0.31538
 Alpha  occ. eigenvalues --   -0.31117  -0.30925  -0.30372  -0.21486  -0.21482
 Alpha  occ. eigenvalues --   -0.21176
 Alpha virt. eigenvalues --    0.01996   0.02957   0.03604   0.03654   0.04867
 Alpha virt. eigenvalues --    0.05561   0.06975   0.07093   0.07202   0.07711
 Alpha virt. eigenvalues --    0.08756   0.08933   0.09586   0.09852   0.10433

 Mulliken charges:
               1
     1  C   -0.446243
     2  C   -0.209435
     3  N   -0.152658
     4  C   -0.144666
     5  C   -0.481791
     6  C   -0.175424
     7  C   -0.457280
     8  C   -0.243155
     9  C   -0.433568
    10  Cl  -0.877738
    11  H    0.171445
    12  H    0.173012
    13  H    0.176026
    14  H    0.218524
    15  H    0.159286
    16  H    0.204895
    17  H    0.153195
    18  H    0.173390
    19  H    0.180227
    20  H    0.171032
    21  H    0.158309
    22  H    0.216143
    23  H    0.174860
    24  H    0.172048
    25  H    0.173099
    26  H    0.216482
    27  H    0.208596
    28  H    0.179122
    29  H    0.168692
    30  H    0.173576
 Sum of Mulliken charges =  -0.00000

 Dipole moment (field-independent basis, Debye):
    X=            -17.6015    Y=             -2.9072    Z=             -0.1307  Tot=             17.8404
 Quadrupole moment (field-independent basis, Debye-Ang):
   XX=           -114.5574   YY=            -67.7621   ZZ=            -66.7677
   XY=             -6.6707   XZ=             -0.2846   YZ=             -0.0816

 Normal termination of Gaussian 16 at Sat Aug 21 09:43:19 2021.
