 Gaussian 16, Revision C.01,

 -------------------------------------------------------------
 #P BP86/TZVP EmpiricalDispersion=GD3 SCRF=(Solvent=Water) Opt
 -------------------------------------------------------------

 -------------------------------------
 Particle #ZGZLRWJZGFRHHQ-UHFFFAOYSA-N
 -------------------------------------
 Symbolic Z-matrix:
 Charge =  1 Multiplicity = 1

 SCF Done:  E(RB-P86) =  -419.968298119     A.U. after   13 cycles
 SCF Done:  E(RB-P86) =  -419.984225102     A.U. after   11 cycles
 SCF Done:  E(RB-P86) =  -419.985352983     A.U. after   10 cycles
 SCF Done:  E(RB-P86) =  -419.985497721     A.U. after    9 cycles
 SCF Done:  E(RB-P86) =  -419.985529456     A.U. after    9 cycles
 SCF Done:  E(RB-P86) =  -419.985552648     A.U. after    9 cycles
 SCF Done:  E(RB-P86) =  -419.985578001     A.U. after    9 cycles
 SCF Done:  E(RB-P86) =  -419.985585300     A.U. after    9 cycles
 SCF Done:  E(RB-P86) =  -419.985619247     A.U. after    8 cycles
 SCF Done:  E(RB-P86) =  -419.985689049     A.U. after   10 cycles
 SCF Done:  E(RB-P86) =  -419.985774885     A.U. after   10 cycles
 SCF Done:  E(RB-P86) =  -419.985803281     A.U. after    9 cycles
 SCF Done:  E(RB-P86) =  -419.985789076     A.U. after    9 cycles
 SCF Done:  E(RB-P86) =  -419.985808399     A.U. after    9 cycles
 SCF Done:  E(RB-P86) =  -419.985797612     A.U. after    9 cycles
 SCF Done:  E(RB-P86) =  -419.985809513     A.U. after    9 cycles
 SCF Done:  E(RB-P86) =  -419.985810073     A.U. after    7 cycles
 SCF Done:  E(RB-P86) =  -419.985810338     A.U. after    7 cycles
 SCF Done:  E(RB-P86) =  -419.985810350     A.U. after    6 cycles
 Optimization completed.
    -- Stationary point found.
 Normal termination of Gaussian 16 at Tue Feb 23 00:18:06 2021.
 Gaussian 16:  ES64L-G16RevC.01  3-Jul-2019

 ---------------------------------------------------------
 # BP86/TZVP SCRF=COSMORS geom=CHECKPOINT guess=CHECKPOINT
 ---------------------------------------------------------

 -------------------------------------------
 COSMO-file for #ZGZLRWJZGFRHHQ-UHFFFAOYSA-N
 -------------------------------------------
 Structure from the checkpoint file:  "ZGZLRWJZGFRHHQ-UHFFFAOYSA-N.chk"
 Charge =  1 Multiplicity = 1

                         Standard orientation:
 ---------------------------------------------------------------------
 Center     Atomic      Atomic             Coordinates (Angstroms)
 Number     Number       Type             X           Y           Z
 ---------------------------------------------------------------------
      1          6           0       -3.253157   -0.910231   -0.234106
      2          7           0       -1.980823   -0.198644   -0.053316
      3          6           0       -1.789111    1.163084   -0.231948
      4          6           0       -0.475211    1.422517    0.045626
      5          7           0        0.111222    0.215178    0.395642
      6          6           0        1.533265    0.008513    0.705375
      7          6           0        2.352713   -0.183799   -0.573921
      8          8           0        3.707224   -0.358298   -0.142588
      9          6           0       -0.818703   -0.755043    0.323320
     10          1           0       -3.097921   -1.973450   -0.025731
     11          1           0       -3.996626   -0.501262    0.460136
     12          1           0       -3.592707   -0.781374   -1.268504
     13          1           0       -2.597548    1.819376   -0.531452
     14          1           0        0.086839    2.348825    0.033009
     15          1           0        1.618690   -0.872964    1.352721
     16          1           0        1.887748    0.885491    1.261275
     17          1           0        1.978222   -1.068065   -1.121453
     18          1           0        2.239998    0.702870   -1.224112
     19          1           0        4.259777   -0.474141   -0.935658
     20          1           0       -0.655833   -1.804903    0.538114
 ---------------------------------------------------------------------

 SCF Done:  E(RB-P86) =  -419.981320018     A.U. after   11 cycles

 The electronic state is 1-A.
 Alpha  occ. eigenvalues --  -18.78083 -14.10698 -14.10628 -10.00171  -9.96052
 Alpha  occ. eigenvalues --   -9.95915  -9.95688  -9.95549  -9.94816  -1.00104
 Alpha  occ. eigenvalues --   -0.94658  -0.89083  -0.74767  -0.71764  -0.67199
 Alpha  occ. eigenvalues --   -0.60817  -0.58632  -0.56260  -0.51726  -0.47871
 Alpha  occ. eigenvalues --   -0.45958  -0.44795  -0.43515  -0.42424  -0.42254
 Alpha  occ. eigenvalues --   -0.41191  -0.40678  -0.37091  -0.36834  -0.34486
 Alpha  occ. eigenvalues --   -0.31727  -0.28385  -0.25343  -0.24239
 Alpha virt. eigenvalues --   -0.06516  -0.03562   0.01573   0.03091   0.03894
 Alpha virt. eigenvalues --    0.05015   0.05498   0.06954   0.07598   0.08051
 Alpha virt. eigenvalues --    0.09340   0.09537   0.10823   0.11018   0.11450

 Mulliken charges:
               1
     1  C   -0.286219
     2  N   -0.021276
     3  C   -0.063186
     4  C   -0.052318
     5  N   -0.044165
     6  C   -0.145738
     7  C   -0.162494
     8  O   -0.423457
     9  C    0.028131
    10  H    0.182557
    11  H    0.191709
    12  H    0.191264
    13  H    0.202359
    14  H    0.195165
    15  H    0.184367
    16  H    0.186334
    17  H    0.147268
    18  H    0.151072
    19  H    0.324785
    20  H    0.213843
 Sum of Mulliken charges =   1.00000

 Dipole moment (field-independent basis, Debye):
    X=             -4.9041    Y=             -0.6901    Z=             -1.3923  Tot=              5.1444
 Quadrupole moment (field-independent basis, Debye-Ang):
   XX=            -28.3187   YY=            -41.2055   ZZ=            -49.9714
   XY=              2.6036   XZ=             -5.0217   YZ=             -0.6045

 Normal termination of Gaussian 16 at Tue Feb 23 00:18:17 2021.
