 Gaussian 16, Revision C.01,

 -------------------------------------------------------------
 #P BP86/TZVP EmpiricalDispersion=GD3 SCRF=(Solvent=Water) Opt
 -------------------------------------------------------------

 -------------------------------------
 Particle #ZQBAKBUEJOMQEX-UHFFFAOYSA-N
 -------------------------------------
 Symbolic Z-matrix:
 Charge =  0 Multiplicity = 1

 SCF Done:  E(RB-P86) =  -727.331399067     A.U. after   14 cycles
 SCF Done:  E(RB-P86) =  -727.365029288     A.U. after   12 cycles
 SCF Done:  E(RB-P86) =  -727.368853646     A.U. after   12 cycles
 SCF Done:  E(RB-P86) =  -727.369287260     A.U. after   11 cycles
 SCF Done:  E(RB-P86) =  -727.370507101     A.U. after   11 cycles
 SCF Done:  E(RB-P86) =  -727.371221197     A.U. after   11 cycles
 SCF Done:  E(RB-P86) =  -727.371800143     A.U. after   11 cycles
 SCF Done:  E(RB-P86) =  -727.372153669     A.U. after   15 cycles
 SCF Done:  E(RB-P86) =  -727.372773904     A.U. after   11 cycles
 SCF Done:  E(RB-P86) =  -727.372908270     A.U. after   10 cycles
 SCF Done:  E(RB-P86) =  -727.373033222     A.U. after   11 cycles
 SCF Done:  E(RB-P86) =  -727.373070460     A.U. after   10 cycles
 SCF Done:  E(RB-P86) =  -727.373083727     A.U. after   10 cycles
 SCF Done:  E(RB-P86) =  -727.373085983     A.U. after    8 cycles
 SCF Done:  E(RB-P86) =  -727.373088477     A.U. after    9 cycles
 SCF Done:  E(RB-P86) =  -727.373088865     A.U. after    8 cycles
 SCF Done:  E(RB-P86) =  -727.373089076     A.U. after    7 cycles
 Optimization completed.
    -- Stationary point found.
 Normal termination of Gaussian 16 at Mon Feb 22 21:38:41 2021.
 Gaussian 16:  ES64L-G16RevC.01  3-Jul-2019

 ---------------------------------------------------------
 # BP86/TZVP SCRF=COSMORS geom=CHECKPOINT guess=CHECKPOINT
 ---------------------------------------------------------

 -------------------------------------------
 COSMO-file for #ZQBAKBUEJOMQEX-UHFFFAOYSA-N
 -------------------------------------------
 Structure from the checkpoint file:  "ZQBAKBUEJOMQEX-UHFFFAOYSA-N.chk"
 Charge =  0 Multiplicity = 1

                         Standard orientation:
 ---------------------------------------------------------------------
 Center     Atomic      Atomic             Coordinates (Angstroms)
 Number     Number       Type             X           Y           Z
 ---------------------------------------------------------------------
      1          8           0       -0.103876    1.492528   -0.244673
      2          6           0        0.261514    0.322114   -0.067025
      3          8           0       -0.626923   -0.704463    0.074303
      4          6           0       -2.005926   -0.392342    0.052026
      5          6           0       -2.741903   -0.767573   -1.070235
      6          6           0       -4.123090   -0.535986   -1.075852
      7          6           0       -4.741995    0.063638    0.027985
      8          6           0       -3.980232    0.431881    1.145036
      9          6           0       -2.599946    0.203264    1.164793
     10          6           0        1.663605   -0.101118    0.004723
     11          6           0        2.037091   -1.447065    0.217047
     12          6           0        3.375681   -1.813200    0.280668
     13          6           0        4.370449   -0.828043    0.132088
     14          6           0        4.031524    0.505286   -0.077106
     15          6           0        2.680042    0.889001   -0.143027
     16          8           0        2.397444    2.197176   -0.346749
     17          1           0       -2.236098   -1.232827   -1.917429
     18          1           0       -4.713661   -0.826278   -1.946775
     19          1           0       -5.818764    0.242187    0.019551
     20          1           0       -4.460333    0.897340    2.007864
     21          1           0       -1.988970    0.479531    2.025136
     22          1           0        1.253186   -2.196469    0.329501
     23          1           0        3.652930   -2.855218    0.444669
     24          1           0        5.424591   -1.109108    0.180893
     25          1           0        4.796757    1.274502   -0.192653
     26          1           0        1.396319    2.265261   -0.360541
 ---------------------------------------------------------------------

 SCF Done:  E(RB-P86) =  -727.355496510     A.U. after   12 cycles

 The electronic state is 1-A.
 Alpha  occ. eigenvalues --  -18.84106 -18.80509 -18.78757 -10.04912  -9.98355
 Alpha  occ. eigenvalues --   -9.97385  -9.93171  -9.92082  -9.91931  -9.91485
 Alpha  occ. eigenvalues --   -9.91455  -9.91353  -9.91347  -9.91073  -9.90979
 Alpha  occ. eigenvalues --   -9.90803  -1.04249  -0.98931  -0.95696  -0.79895
 Alpha  occ. eigenvalues --   -0.79085  -0.72259  -0.69263  -0.68921  -0.68527
 Alpha  occ. eigenvalues --   -0.61750  -0.58421  -0.56610  -0.55769  -0.53077
 Alpha  occ. eigenvalues --   -0.50355  -0.47899  -0.47041  -0.45113  -0.44438
 Alpha  occ. eigenvalues --   -0.43899  -0.42077  -0.40889  -0.40436  -0.39914
 Alpha  occ. eigenvalues --   -0.38787  -0.37697  -0.37197  -0.35845  -0.34230
 Alpha  occ. eigenvalues --   -0.33875  -0.32742  -0.32414  -0.31757  -0.31593
 Alpha  occ. eigenvalues --   -0.29263  -0.26605  -0.25201  -0.24489  -0.23743
 Alpha  occ. eigenvalues --   -0.21821
 Alpha virt. eigenvalues --   -0.09981  -0.05642  -0.05302  -0.04618  -0.00794
 Alpha virt. eigenvalues --    0.03251   0.04110   0.04814   0.07104   0.07488
 Alpha virt. eigenvalues --    0.07834   0.08191   0.08604   0.10105   0.10274

 Mulliken charges:
               1
     1  O   -0.382924
     2  C    0.272437
     3  O   -0.161953
     4  C    0.097275
     5  C   -0.171525
     6  C   -0.134273
     7  C   -0.141431
     8  C   -0.128100
     9  C   -0.157906
    10  C   -0.198187
    11  C   -0.050313
    12  C   -0.170408
    13  C   -0.082550
    14  C   -0.227760
    15  C    0.169976
    16  O   -0.275084
    17  H    0.163484
    18  H    0.156102
    19  H    0.156894
    20  H    0.156343
    21  H    0.172307
    22  H    0.165158
    23  H    0.154109
    24  H    0.154396
    25  H    0.157644
    26  H    0.306292
 Sum of Mulliken charges =  -0.00000

 Dipole moment (field-independent basis, Debye):
    X=             -0.9192    Y=             -3.0745    Z=              0.5468  Tot=              3.2552
 Quadrupole moment (field-independent basis, Debye-Ang):
   XX=            -70.6802   YY=            -95.8687   ZZ=            -89.0117
   XY=             -6.8214   XZ=              1.4633   YZ=              3.8158

 Normal termination of Gaussian 16 at Mon Feb 22 21:39:09 2021.
